# vtk DataFile Version 5.1
vtk output
ASCII
DATASET POLYDATA
POINTS 6552 float
98 55 50.1 97 56 50.1 98 56 50.1 
97 57 50.1 98 57 50.1 98 58 50.1 
98 59 50.1 98 54.1 51 97.1 55 51 
98.9 55 51 97 55.1 51 96.1 56 51 
98.9 56 51 96.1 57 51 98.9 57 51 
97 57.9 51 99 57 51.1 97.1 58 51 
98.9 58 51 97 58 51.1 97.1 59 51 
98.9 59 51 98 59.9 51 97 59 51.1 
97 60 51.1 98 54.1 52 96 54 52.1 
98 54 52.1 99 54 52.1 97.1 55 52 
98.9 55 52 97 55.1 52 96 55 52.1 
97 55 52.1 99 55 52.1 96.1 56 52 
98.9 56 52 99 56.1 52 96 56 52.1 
99 56 52.1 96.1 57 52 99.9 57 52 
99 57.9 52 96 57 52.1 96.1 58 52 
98.9 58 52 96 58 52.1 96.1 59 52 
98.9 59 52 98 59.9 52 96 59 52.1 
96.1 60 52 97.9 60 52 97 60.9 52 
97 61 52.1 96 53.1 53 98 53.1 53 
99 53.1 53 98 53 53.1 95.1 54 53 
96.9 54 53 97.1 54 53 99.9 54 53 
97 54.1 53 96 54 53.9 97 54 53.1 
99 54 53.9 95.1 55 53 99.9 55 53 
95.1 56 53 99.9 56 53 95.1 57 53 
99.9 57 53 99 57.9 53 95.1 58 53 
98.9 58 53 95.1 59 53 98.9 59 53 
96 59.9 53 98 59.9 53 96.1 60 53 
97.9 60 53 95 60 53.1 96 60 53.1 
96.1 61 53 97.9 61 53 97 61.9 53 
97 61 53.9 98 52.1 54 97.1 53 54 
98.9 53 54 97 53.1 54 98 53 54.9 
96.1 54 54 98.9 54 54 96 54.1 54 
99 54.1 54 99 54 54.1 95.1 55 54 
99.9 55 54 96 55 54.9 95.1 56 54 
99.9 56 54 95.1 57 54 99.9 57 54 
99 57.9 54 95 57 54.1 99 57 54.9 
95.1 58 54 98.9 58 54 95 58 54.1 
98 58 54.9 95.1 59 54 98.9 59 54 
95 59.1 54 98 59.9 54 98 59 54.9 
94.1 60 54 97.9 60 54 95 60.9 54 
96 60.9 54 97 60.9 54 97 60 54.9 
97 53.1 55 98 53.1 55 99 53.1 55 
96.1 54 55 99.9 54 55 97 54 55.9 
99 54 55.9 96.1 55 55 99.9 55 55 
96 55.1 55 99 55 55.9 95.1 56 55 
99.9 56 55 95 56.1 55 99 56.9 55 
96 56 55.9 94.1 57 55 98.9 57 55 
98 57.9 55 95 57 55.9 99 57 55.1 
94.1 58 55 97.9 58 55 95 58.9 55 
95 58 55.9 96 58 55.9 98 58 55.1 
95.1 59 55 97.9 59 55 95 59.1 55 
97 59.9 55 94.1 60 55 96.9 60 55 
95 60.9 55 96 60.9 55 95 60 55.9 
96 60 55.9 98 53.1 56 99 53 56.1 
97.1 54 56 98.9 54 56 97 54.1 56 
97 54 56.1 99 54 56.1 96.1 55 56 
98.9 55 56 99 55.1 56 97 55 56.9 
99 55 56.1 96.1 56 56 99.9 56 56 
96 56.1 56 95.1 57 56 99.9 57 56 
96 57.9 56 99 57.9 56 96.1 58 56 
98.9 58 56 96 58.1 56 98 58.9 56 
96 58 56.1 95.1 59 56 97.9 59 56 
96 59.9 56 97 59.9 56 96 59 56.9 
99 52.1 57 98.1 53 57 99.9 53 57 
97 53.1 57 98 53.1 57 96.1 54 57 
99.9 54 57 97 54.9 57 97 54 57.9 
97.1 55 57 99.9 55 57 97 55.1 57 
96.1 56 57 99.9 56 57 96 56.1 57 
96 56 57.1 95.1 57 57 99.9 57 57 
99 57.9 57 95.1 58 57 98.9 58 57 
96 58.9 57 98 58.9 57 99 58 57.1 
96.1 59 57 97.9 59 57 97 59.9 57 
96 59 57.1 99 52.1 58 98.1 53 58 
99.9 53 58 98 53.1 58 98 53 58.1 
99 53 58.9 97.1 54 58 99.9 54 58 
97.1 55 58 99.9 55 58 96 55.1 58 
97 55.1 58 97 55 58.1 95.1 56 58 
99.9 56 58 95.1 57 58 99.9 57 58 
95.1 58 58 99.9 58 58 98 58.9 58 
99 58.9 58 95.1 59 58 97.9 59 58 
96 59.9 58 97 59.9 58 96 59 58.9 
97 59 58.9 98 59 58.1 98 52.1 59 
97.1 53 59 98.9 53 59 99 53.1 59 
99 53 59.1 97.1 54 59 99.9 54 59 
97 54.1 59 96.1 55 59 99.9 55 59 
96 55.1 59 97 55 59.9 95.1 56 59 
99.9 56 59 95.1 57 59 99.9 57 59 
95.1 58 59 99.9 58 59 96 58.9 59 
97 58.9 59 99 58.9 59 97.1 59 59 
98.9 59 59 98 59.9 59 97 59 59.1 
97 60 59.1 98 52.1 60 99 52.1 60 
97.1 53 60 99.9 53 60 99 53 60.9 
97.1 54 60 99.9 54 60 98 54 60.9 
97.1 55 60 99.9 55 60 96 55.1 60 
97 55.1 60 97 55 60.1 100 55 60.1 
95.1 56 60 99.9 56 60 95.1 57 60 
99.9 57 60 95.1 58 60 99.9 58 60 
96 58.9 60 99 58.9 60 96.1 59 60 
98.9 59 60 98 59.9 60 97 59 60.9 
99 59 60.1 96.1 60 60 97.9 60 60 
97 60.9 60 98 60 60.1 98 52.1 61 
97.1 53 61 98.9 53 61 98 53.9 61 
99 53.1 61 98 53 61.9 98.1 54 61 
99.9 54 61 97 54.1 61 98 54.1 61 
100 54.1 61 98 54 61.1 96.1 55 61 
100.9 55 61 96 55.1 61 100 55.9 61 
100 55 61.9 95.1 56 61 99.9 56 61 
96 56 61.9 100 56 61.1 95.1 57 61 
99.9 57 61 95.1 58 61 99.9 58 61 
96 58.9 61 97 58.9 61 97.1 59 61 
99.9 59 61 97 59.1 61 99 59.9 61 
96 59 61.1 97 59 61.1 99 59 61.9 
96.1 60 61 98.9 60 61 97 60.9 61 
98 60.9 61 98 60 61.9 98 53.1 62 
99 53.1 62 97.1 54 62 99.9 54 62 
97 54.1 62 96.1 55 62 99.9 55 62 
100 55.1 62 100 55 62.1 96.1 56 62 
100.9 56 62 96 56.1 62 100 56.9 62 
100 56 62.9 95.1 57 62 99.9 57 62 
100 57 62.1 95.1 58 62 99.9 58 62 
99 58.9 62 95.1 59 62 98.9 59 62 
96 59.9 62 98 59.9 62 96.1 60 62 
97.9 60 62 97 60.9 62 96 60 62.1 
98 60 62.1 96 61 62.1 97 61 62.1 
98 53.1 63 99 53.1 63 97.1 54 63 
99.9 54 63 97 54.1 63 100 54.1 63 
96.1 55 63 100.9 55 63 100 55.9 63 
96.1 56 63 99.9 56 63 96 56.1 63 
100 56.1 63 96 56 63.1 100 56 63.1 
95.1 57 63 100.9 57 63 100 57.9 63 
95.1 58 63 99.9 58 63 99 58.9 63 
100 58 63.1 95.1 59 63 98.9 59 63 
99 59 63.1 95.1 60 63 98.9 60 63 
98 60.9 63 95.1 61 63 97.9 61 63 
96 61.9 63 97 61.9 63 96 62 63.1 
97 62 63.1 98 53.1 64 99 53.1 64 
97.1 54 64 99.9 54 64 97 54.1 64 
100 54.1 64 97 54 64.1 96.1 55 64 
100.9 55 64 96 55.1 64 96 55 64.1 
100 55 64.9 95.1 56 64 100.9 56 64 
100 56 64.9 95.1 57 64 100.9 57 64 
95.1 58 64 100.9 58 64 100 58.9 64 
95 58 64.1 95.1 59 64 99.9 59 64 
99 59.9 64 95 59 64.1 95.1 60 64 
98.9 60 64 98 60.9 64 95 60 64.1 
95.1 61 64 97.9 61 64 95 61 64.1 
98 61 64.1 95.1 62 64 97.9 62 64 
96 62.9 64 97 62.9 64 94 62 64.1 
95 62 64.1 96 63 64.1 97 53.1 65 
98 53.1 65 99 53.1 65 96.1 54 65 
99.9 54 65 96 54.1 65 99 54 65.9 
95.1 55 65 99.9 55 65 95.1 56 65 
99.9 56 65 100 56.1 65 95.1 57 65 
100.9 57 65 95 57.1 65 100 57 65.9 
94.1 58 65 100.9 58 65 100 58.9 65 
100 58 65.9 94.1 59 65 99.9 59 65 
99 59.9 65 94.1 60 65 98.9 60 65 
94.1 61 65 98.9 61 65 94 61.1 65 
98 61.9 65 93.1 62 65 97.9 62 65 
94 62.9 65 95 62.9 65 97 62.9 65 
94 62 65.9 95.1 63 65 96.9 63 65 
96 63.9 65 95 63 65.1 96 64 65.1 
97 64 65.1 97 53.1 66 98 53.1 66 
97 53 66.1 96.1 54 66 98.9 54 66 
96 54.1 66 99 54.1 66 95.1 55 66 
99.9 55 66 99 55 66.9 95.1 56 66 
99.9 56 66 98 56 66.9 99 56 66.9 
95.1 57 66 99.9 57 66 95 57.1 66 
99 57 66.9 94.1 58 66 99.9 58 66 
98 58 66.9 99 58 66.9 94.1 59 66 
99.9 59 66 99 59.9 66 95 59 66.9 
99 59 66.9 94.1 60 66 98.9 60 66 
94.1 61 66 98.9 61 66 98 61.9 66 
99 61 66.1 94.1 62 66 97.9 62 66 
97 62.9 66 98 62 66.1 94.1 63 66 
96.9 63 66 95 63.9 66 97 63.1 66 
95.1 64 66 97.9 64 66 96 64.9 66 
97 64.9 66 95 64 66.1 97 64 66.9 
97 52.1 67 96.1 53 67 97.9 53 67 
98 53.1 67 97 53 67.9 96.1 54 67 
98.9 54 67 96 54.1 67 96 54 67.1 
98 54 67.9 95.1 55 67 98.9 55 67 
98 55.9 67 95.1 56 67 97.9 56 67 
98 56.1 67 95.1 57 67 98.9 57 67 
95 57.1 67 98 57.9 67 98 57 67.9 
94.1 58 67 97.9 58 67 95 58.9 67 
98 58.1 67 95.1 59 67 98.9 59 67 
95 59.1 67 98 59 67.9 94.1 60 67 
98.9 60 67 99 60.1 67 98 60 67.9 
94.1 61 67 99.9 61 67 99 61.9 67 
99 61 67.9 94.1 62 67 98.9 62 67 
97 62.9 67 98 62.9 67 94 62 67.1 
98 62 67.9 94.1 63 67 96.9 63 67 
94 63 67.1 97 63 67.1 94.1 64 67 
96.9 64 67 95 64.9 67 96 64.9 67 
97 52 68.1 96 53.1 68 97 53.1 68 
96 53 68.1 97 53 68.1 95.1 54 68 
97.9 54 68 98 54.1 68 98 54 68.1 
95.1 55 68 98.9 55 68 98 55.9 68 
95 55 68.1 95.1 56 68 97.9 56 68 
95.1 57 68 97.9 57 68 95 57.1 68 
95 57 68.1 97 57 68.9 94.1 58 68 
97.9 58 68 95 58.9 68 95.1 59 68 
97.9 59 68 95 59.1 68 98 59 68.1 
94.1 60 68 97.9 60 68 98 60.1 68 
98 60 68.1 94.1 61 68 98.9 61 68 
94 61.1 68 98 61.9 68 98 61 68.9 
93.1 62 68 97.9 62 68 93.1 63 68 
97.9 63 68 94 63.9 68 97 63.9 68 
94.1 64 68 96.9 64 68 95 64.9 68 
96 64.9 68 94 64 68.1 97 64 68.1 
93 65 68.1 94 65 68.1 96 65 68.1 
96 66 68.1 97 51.1 69 96.1 52 69 
97.9 52 69 96 52.1 69 96 52 69.1 
97 52 69.9 95.1 53 69 97.9 53 69 
98 53.1 69 95 53 69.1 95.1 54 69 
98.9 54 69 95 54.1 69 95 54 69.1 
98 54 69.9 94.1 55 69 98.9 55 69 
95 55.9 69 98 55.9 69 95.1 56 69 
97.9 56 69 95 56.1 69 97 56.9 69 
94 56 69.1 95 56 69.1 97 56 69.9 
94.1 57 69 96.9 57 69 97 57.1 69 
97 57 69.1 94.1 58 69 97.9 58 69 
95 58.9 69 98 58.1 69 94 58 69.1 
98 58 69.1 95.1 59 69 98.9 59 69 
95 59.1 69 94.1 60 69 98.9 60 69 
98 60.9 69 95 60 69.9 96 60 69.9 
94.1 61 69 97.9 61 69 94 61.1 69 
95 61 69.9 93.1 62 69 97.9 62 69 
93.1 63 69 97.9 63 69 93.1 64 69 
97.9 64 69 93 64.1 69 95 64.9 69 
97 64.9 69 92.1 65 69 94.9 65 69 
95.1 65 69 96.9 65 69 93 65.9 69 
94 65.9 69 94 65 69.9 95 65 69.1 
95.1 66 69 96.9 66 69 96 66.9 69 
94 66 69.1 95 66 69.1 96 66 69.9 
97 50 70.1 96 51.1 70 95.1 52 70 
96.9 52 70 95 52.1 70 97 52.1 70 
95 52 70.1 97 52 70.1 94.1 53 70 
97.9 53 70 94.1 54 70 97.9 54 70 
98 54.1 70 97 54 70.9 94.1 55 70 
98.9 55 70 94 55.1 70 97 55.9 70 
98 55.9 70 97 55 70.9 98 55 70.9 
93.1 56 70 96.9 56 70 94 56.9 70 
97 56.1 70 94.1 57 70 97.9 57 70 
94 57.1 70 98 57.1 70 97 57 70.9 
93.1 58 70 98.9 58 70 94 58.9 70 
95 58.9 70 94 58 70.9 95 58 70.9 
97 58 70.9 98 58 70.9 95.1 59 70 
98.9 59 70 96 59.9 70 98 59 70.9 
96.1 60 70 98.9 60 70 96 60.1 70 
98 60.9 70 95 60 70.1 96 60 70.1 
98 60 70.9 95.1 61 70 97.9 61 70 
94 61.1 70 95 61.1 70 94 61 70.1 
95 61 70.1 98 61 70.1 93.1 62 70 
97.9 62 70 93.1 63 70 97.9 63 70 
93.1 64 70 97.9 64 70 93 64.1 70 
94 64.9 70 97 64.9 70 92.1 65 70 
93.9 65 70 94.1 65 70 96.9 65 70 
93 65.9 70 94 65.1 70 96 65.9 70 
93 65 70.9 94 65 70.1 93.1 66 70 
95.9 66 70 94 66.9 70 95 66.9 70 
93 66 70.1 94 67 70.1 97 49.1 71 
97 49 71.1 96.1 50 71 97.9 50 71 
97 50.9 71 95 51.1 71 96 51.1 71 
97 51.1 71 94 51 71.1 96 51 71.1 
94.1 52 71 97.9 52 71 94 52 71.1 
94.1 53 71 97.9 53 71 97 53.9 71 
94 53 71.1 94.1 54 71 96.9 54 71 
94 54 71.1 94.1 55 71 96.9 55 71 
94 55.1 71 93.1 56 71 96.9 56 71 
94 56.9 71 94 56 71.9 94.1 57 71 
96.9 57 71 95 57.9 71 95 57 71.9 
95.1 58 71 96.9 58 71 97 58.1 71 
95.1 59 71 97.9 59 71 95 59.1 71 
94.1 60 71 97.9 60 71 94 60.1 71 
98 60.1 71 93.1 61 71 98.9 61 71 
98 61.9 71 93.1 62 71 97.9 62 71 
94 62 71.9 93.1 63 71 97.9 63 71 
93.1 64 71 97.9 64 71 97 64.9 71 
93.1 65 71 96.9 65 71 93 65.1 71 
96 65.9 71 92.1 66 71 95.9 66 71 
93 66.9 71 95 66.9 71 96 66 71.1 
93.1 67 71 94.9 67 71 94 67.9 71 
95 67 71.1 94 68 71.1 97 48.1 72 
96.1 49 72 97.9 49 72 97 49 72.9 
96.1 50 72 97.9 50 72 94 50.1 72 
96 50.1 72 97 50.9 72 94 50 72.1 
95 50 72.1 96 50 72.1 93.1 51 72 
94.9 51 72 95.1 51 72 96.9 51 72 
[...]
POINT_DATA 6552
SCALARS scalars char
LOOKUP_TABLE default
0 0 0 0 0 0 0 0 0 
0 0 0 0 0 0 0 0 0 
0 0 0 0 0 0 0 0 0 
0 0 0 0 0 0 0 0 0 
0 0 0 0 0 0 0 0 0 
0 0 0 0 0 0 0 0 0 
0 0 0 0 0 0 0 0 0 
0 0 0 0 0 0 0 0 0 
0 0 0 0 0 0 0 0 0 
0 0 0 0 0 0 0 0 0 
0 0 0 0 0 0 0 0 0 
0 0 0 0 0 0 0 0 0 
0 0 0 0 0 0 0 0 0 
0 0 0 0 0 0 0 0 0 
0 0 0 0 0 0 0 0 0 
0 0 0 0 0 0 0 0 0 
0 0 0 0 0 0 0 0 0 
0 0 0 0 0 0 0 0 0 
0 0 0 0 0 0 0 0 0 
0 0 0 0 0 0 0 0 0 
0 0 0 0 0 0 0 0 0 
0 0 0 0 0 0 0 0 0 
0 0 0 0 0 0 0 0 0 
0 0 0 0 0 0 0 0 0 
0 0 0 0 0 0 0 0 0 
0 0 0 0 0 0 0 0 0 
0 0 0 0 0 0 0 0 0 
0 0 0 0 0 0 0 0 0 
0 0 0 0 0 0 0 0 0 
0 0 0 0 0 0 0 0 0 
0 0 0 0 0 0 0 0 0 
0 0 0 0 0 0 0 0 0 
0 0 0 0 0 0 0 0 0 
0 0 0 0 0 0 0 0 0 
0 0 0 0 0 0 0 0 0 
0 0 0 0 0 0 0 0 0 
0 0 0 0 0 0 0 0 0 
0 0 0 0 0 0 0 0 0 
0 0 0 0 0 0 0 0 0 
0 0 0 0 0 0 0 0 0 
0 0 0 0 0 0 0 0 0 
0 0 0 0 0 0 0 0 0 
0 0 0 0 0 0 0 0 0 
0 0 0 0 0 0 0 0 0 
0 0 0 0 0 0 0 0 0 
0 0 0 0 0 0 0 0 0 
0 0 0 0 0 0 0 0 0 
0 0 0 0 0 0 0 0 0 
0 0 0 0 0 0 0 0 0 
0 0 0 0 0 0 0 0 0 
0 0 0 0 0 0 0 0 0 
0 0 0 0 0 0 0 0 0 
0 0 0 0 0 0 0 0 0 
0 0 0 0 0 0 0 0 0 
0 0 0 0 0 0 0 0 0 
0 0 0 0 0 0 0 0 0 
0 0 0 0 0 0 0 0 0 
0 0 0 0 0 0 0 0 0 
0 0 0 0 0 0 0 0 0 
0 0 0 0 0 0 0 0 0 
0 0 0 0 0 0 0 0 0 
0 0 0 0 0 0 0 0 0 
0 0 0 0 0 0 0 0 0 
0 0 0 0 0 0 0 0 0 
0 0 0 0 0 0 0 0 0 
0 0 0 0 0 0 0 0 0 
0 0 0 0 0 0 0 0 0 
0 0 0 0 0 0 0 0 0 
0 0 0 0 0 0 0 0 0 
0 0 0 0 0 0 0 0 0 
0 0 0 0 0 0 0 0 0 
0 0 0 0 0 0 0 0 0 
0 0 0 0 0 0 0 0 0 
0 0 0 0 0 0 0 0 0 
0 0 0 0 0 0 0 0 0 
0 0 0 0 0 0 0 0 0 
0 0 0 0 0 0 0 0 0 
0 0 0 0 0 0 0 0 0 
0 0 0 0 0 0 0 0 0 
0 0 0 0 0 0 0 0 0 
0 0 0 0 0 0 0 0 0 
0 0 0 0 0 0 0 0 0 
0 0 0 0 0 0 0 0 0 
0 0 0 0 0 0 0 0 0 
0 0 0 0 0 0 0 0 0 
0 0 0 0 0 0 0 0 0 
0 0 0 0 0 0 0 0 0 
0 0 0 0 0 0 0 0 0 
0 0 0 0 0 0 0 0 0 
0 0 0 0 0 0 0 0 0 
0 0 0 0 0 0 0 0 0 
0 0 0 0 0 0 0 0 0 
0 0 0 0 0 0 0 0 0 
0 0 0 0 0 0 0 0 0 
0 0 0 0 0 0 0 0 0 
0 0 0 0 0 0 0 0 0 
0 0 0 0 0 0 0 0 0 
0 0 0 0 0 0 0 0 0 
0 0 0 0 0 0 0 0 0 
0 0 0 0 0 0 0 0 0 
0 0 0 0 0 0 0 0 0 
0 0 0 0 0 0 0 0 0 
0 0 0 0 0 0 0 0 0 
0 0 0 0 0 0 0 0 0 
0 0 0 0 0 0 0 0 0 
0 0 0 0 0 0 0 0 0 
0 0 0 0 0 0 0 0 0 
0 0 0 0 0 0 0 0 0 
0 0 0 0 0 0 0 0 0 
0 0 0 0 0 0 0 0 0 
0 0 0 0 0 0 0 0 0 
0 0 0 0 0 0 0 0 0 
0 0 0 0 0 0 0 0 0 
0 0 0 0 0 0 0 0 0 
0 0 0 0 0 0 0 0 0 
0 0 0 0 0 0 0 0 0 
0 0 0 0 0 0 0 0 0 
0 0 0 0 0 0 0 0 0 
0 0 0 0 0 0 0 0 0 
0 0 0 0 0 0 0 0 0 
0 0 0 0 0 0 0 0 0 
0 0 0 0 0 0 0 0 0 
0 0 0 0 0 0 0 0 0 
0 0 0 0 0 0 0 0 0 
0 0 0 0 0 0 0 0 0 
0 0 0 0 0 0 0 0 0 
0 0 0 0 0 0 0 0 0 
0 0 0 0 0 0 0 0 0 
0 0 0 0 0 0 0 0 0 
0 0 0 0 0 0 0 0 0 
0 0 0 0 0 0 0 0 0 
0 0 0 0 0 0 0 0 0 
0 0 0 0 0 0 0 0 0 
0 0 0 0 0 0 0 0 0 
0 0 0 0 0 0 0 0 0 
0 0 0 0 0 0 0 0 0 
0 0 0 0 0 0 0 0 0 
0 0 0 0 0 0 0 0 0 
0 0 0 0 0 0 0 0 0 
0 0 0 0 0 0 0 0 0 
0 0 0 0 0 0 0 0 0 
0 0 0 0 0 0 0 0 0 
0 0 0 0 0 0 0 0 0 
0 0 0 0 0 0 0 0 0 
0 0 0 0 0 0 0 0 0 
0 0 0 0 0 0 0 0 0 
0 0 0 0 0 0 0 0 0 
0 0 0 0 0 0 0 0 0 
0 0 0 0 0 0 0 0 0 
0 0 0 0 0 0 0 0 0 
0 0 0 0 0 0 0 0 0 
0 0 0 0 0 0 0 0 0 
0 0 0 0 0 0 0 0 0 
0 0 0 0 0 0 0 0 0 
0 0 0 0 0 0 0 0 0 
0 0 0 0 0 0 0 0 0 
0 0 0 0 0 0 0 0 0 
0 0 0 0 0 0 0 0 0 
0 0 0 0 0 0 0 0 0 
0 0 0 0 0 0 0 0 0 
0 0 0 0 0 0 0 0 0 
0 0 0 0 0 0 0 0 0 
0 0 0 0 0 0 0 0 0 
0 0 0 0 0 0 0 0 0 
0 0 0 0 0 0 0 0 0 
0 0 0 0 0 0 0 0 0 
0 0 0 0 0 0 0 0 0 
0 0 0 0 0 0 0 0 0 
0 0 0 0 0 0 0 0 0 
0 0 0 0 0 0 0 0 0 
0 0 0 0 0 0 0 0 0 
0 0 0 0 0 0 0 0 0 
0 0 0 0 0 0 0 0 0 
0 0 0 0 0 0 0 0 0 
0 0 0 0 0 0 0 0 0 
0 0 0 0 0 0 0 0 0 
0 0 0 0 0 0 0 0 0 
0 0 0 0 0 0 0 0 0 
0 0 0 0 0 0 0 0 0 
0 0 0 0 0 0 0 0 0 
0 0 0 0 0 0 0 0 0 
0 0 0 0 0 0 0 0 0 
0 0 0 0 0 0 0 0 0 
0 0 0 0 0 0 0 0 0 
0 0 0 0 0 0 0 0 0 
0 0 0 0 0 0 0 0 0 
0 0 0 0 0 0 0 0 0 
0 0 0 0 0 0 0 0 0 
0 0 0 0 0 0 0 0 0 
0 0 0 0 0 0 0 0 0 
0 0 0 0 0 0 0 0 0 
0 0 0 0 0 0 0 0 0 
0 0 0 0 0 0 0 0 0 
0 0 0 0 0 0 0 0 0 
0 0 0 0 0 0 0 0 0 
0 0 0 0 0 0 0 0 0 
0 0 0 0 0 0 0 0 0 
0 0 0 0 0 0 0 0 0 
0 0 0 0 0 0 0 0 0 
0 0 0 0 0 0 0 0 0 
0 0 0 0 0 0 0 0 0 
0 0 0 0 0 0 0 0 0 
0 0 0 0 0 0 0 0 0 
0 0 0 0 0 0 0 0 0 
0 0 0 0 0 0 0 0 0 
0 0 0 0 0 0 0 0 0 
0 0 0 0 0 0 0 0 0 
0 0 0 0 0 0 0 0 0 
0 0 0 0 0 0 0 0 0 
0 0 0 0 0 0 0 0 0 
0 0 0 0 0 0 0 0 0 
0 0 0 0 0 0 0 0 0 
0 0 0 0 0 0 0 0 0 
0 0 0 0 0 0 0 0 0 
0 0 0 0 0 0 0 0 0 
0 0 0 0 0 0 0 0 0 
0 0 0 0 0 0 0 0 0 
0 0 0 0 0 0 0 0 0 
0 0 0 0 0 0 0 0 0 
0 0 0 0 0 0 0 0 0 
0 0 0 0 0 0 0 0 0 
0 0 0 0 0 0 0 0 0 
0 0 0 0 0 0 0 0 0 
0 0 0 0 0 0 0 0 0 
0 0 0 0 0 0 0 0 0 
0 0 0 0 0 0 0 0 0 
0 0 0 0 0 0 0 0 0 
0 0 0 0 0 0 0 0 0 
0 0 0 0 0 0 0 0 0 
0 0 0 0 0 0 0 0 0 
0 0 0 0 0 0 0 0 0 
0 0 0 0 0 0 0 0 0 
0 0 0 0 0 0 0 0 0 
0 0 0 0 0 0 0 0 0 
0 0 0 0 0 0 0 0 0 
0 0 0 0 0 0 0 0 0 
0 0 0 0 0 0 0 0 0 
0 0 0 0 0 0 0 0 0 
0 0 0 0 0 0 0 0 0 
0 0 0 0 0 0 0 0 0 
0 0 0 0 0 0 0 0 0 
0 0 0 0 0 0 0 0 0 
0 0 0 0 0 0 0 0 0 
0 0 0 0 0 0 0 0 0 
0 0 0 0 0 0 0 0 0 
0 0 0 0 0 0 0 0 0 
0 0 0 0 0 0 0 0 0 
0 0 0 0 0 0 0 0 0 
0 0 0 0 0 0 0 0 0 
0 0 0 0 0 0 0 0 0 
0 0 0 0 0 0 0 0 0 
0 0 0 0 0 0 0 0 0 
0 0 0 0 0 0 0 0 0 
0 0 0 0 0 0 0 0 0 
0 0 0 0 0 0 0 0 0 
0 0 0 0 0 0 0 0 0 
0 0 0 0 0 0 0 0 0 
0 0 0 0 0 0 0 0 0 
0 0 0 0 0 0 0 0 0 
0 0 0 0 0 0 0 0 0 
0 0 0 0 0 0 0 0 0 
0 0 0 0 0 0 0 0 0 
0 0 0 0 0 0 0 0 0 
0 0 0 0 0 0 0 0 0 
0 0 0 0 0 0 0 0 0 
0 0 0 0 0 0 0 0 0 
0 0 0 0 0 0 0 0 0 
0 0 0 0 0 0 0 0 0 
0 0 0 0 0 0 0 0 0 
0 0 0 0 0 0 0 0 0 
0 0 0 0 0 0 0 0 0 
0 0 0 0 0 0 0 0 0 
0 0 0 0 0 0 0 0 0 
0 0 0 0 0 0 0 0 0 
0 0 0 0 0 0 0 0 0 
0 0 0 0 0 0 0 0 0 
0 0 0 0 0 0 0 0 0 
0 0 0 0 0 0 0 0 0 
0 0 0 0 0 0 0 0 0 
0 0 0 0 0 0 0 0 0 
0 0 0 0 0 0 0 0 0 
0 0 0 0 0 0 0 0 0 
0 0 0 0 0 0 0 0 0 
0 0 0 0 0 0 0 0 0 
0 0 0 0 0 0 0 0 0 
0 0 0 0 0 0 0 0 0 
0 0 0 0 0 0 0 0 0 
0 0 0 0 0 0 0 0 0 
0 0 0 0 0 0 0 0 0 
0 0 0 0 0 0 0 0 0 
0 0 0 0 0 0 0 0 0 
0 0 0 0 0 0 0 0 0 
0 0 0 0 0 0 0 0 0 
0 0 0 0 0 0 0 0 0 
0 0 0 0 0 0 0 0 0 
0 0 0 0 0 0 0 0 0 
0 0 0 0 0 0 0 0 0 
0 0 0 0 0 0 0 0 0 
0 0 0 0 0 0 0 0 0 
0 0 0 0 0 0 0 0 0 
0 0 0 0 0 0 0 0 0 
0 0 0 0 0 0 0 0 0 
0 0 0 0 0 0 0 0 0 
0 0 0 0 0 0 0 0 0 
0 0 0 0 0 0 0 0 0 
0 0 0 0 0 0 0 0 0 
0 0 0 0 0 0 0 0 0 
0 0 0 0 0 0 0 0 0 
0 0 0 0 0 0 0 0 0 
0 0 0 0 0 0 0 0 0 
0 0 0 0 0 0 0 0 0 
0 0 0 0 0 0 0 0 0 
0 0 0 0 0 0 0 0 0 
0 0 0 0 0 0 0 0 0 
0 0 0 0 0 0 0 0 0 
0 0 0 0 0 0 0 0 0 
0 0 0 0 0 0 0 0 0 
0 0 0 0 0 0 0 0 0 
0 0 0 0 0 0 0 0 0 
0 0 0 0 0 0 0 0 0 
0 0 0 0 0 0 0 0 0 
0 0 0 0 0 0 0 0 0 
0 0 0 0 0 0 0 0 0 
0 0 0 0 0 0 0 0 0 
0 0 0 0 0 0 0 0 0 
0 0 0 0 0 0 0 0 0 
0 0 0 0 0 0 0 0 0 
0 0 0 0 0 0 0 0 0 
0 0 0 0 0 0 0 0 0 
0 0 0 0 0 0 0 0 0 
0 0 0 0 0 0 0 0 0 
0 0 0 0 0 0 0 0 0 
0 0 0 0 0 0 0 0 0 
0 0 0 0 0 0 0 0 0 
0 0 0 0 0 0 0 0 0 
0 0 0 0 0 0 0 0 0 
0 0 0 0 0 0 0 0 0 
0 0 0 0 0 0 0 0 0 
0 0 0 0 0 0 0 0 0 
0 0 0 0 0 0 0 0 0 
0 0 0 0 0 0 0 0 0 
0 0 0 0 0 0 0 0 0 
0 0 0 0 0 0 0 0 0 
0 0 0 0 0 0 0 0 0 
0 0 0 0 0 0 0 0 0 
0 0 0 0 0 0 0 0 0 
0 0 0 0 0 0 0 0 0 
0 0 0 0 0 0 0 0 0 
0 0 0 0 0 0 0 0 0 
0 0 0 0 0 0 0 0 0 
0 0 0 0 0 0 0 0 0 
0 0 0 0 0 0 0 0 0 
0 0 0 0 0 0 0 0 0 
0 0 0 0 0 0 0 0 0 
0 0 0 0 0 0 0 0 0 
0 0 0 0 0 0 0 0 0 
0 0 0 0 0 0 0 0 0 
0 0 0 0 0 0 0 0 0 
0 0 0 0 0 0 0 0 0 
0 0 0 0 0 0 0 0 0 
0 0 0 0 0 0 0 0 0 
0 0 0 0 0 0 0 0 0 
0 0 0 0 0 0 0 0 0 
0 0 0 0 0 0 0 0 0 
0 0 0 0 0 0 0 0 0 
0 0 0 0 0 0 0 0 0 
0 0 0 0 0 0 0 0 0 
0 0 0 0 0 0 0 0 0 
0 0 0 0 0 0 0 0 0 
0 0 0 0 0 0 0 0 0 
0 0 0 0 0 0 0 0 0 
0 0 0 0 0 0 0 0 0 
0 0 0 0 0 0 0 0 0 
0 0 0 0 0 0 0 0 0 
0 0 0 0 0 0 0 0 0 
0 0 0 0 0 0 0 0 0 
0 0 0 0 0 0 0 0 0 
0 0 0 0 0 0 0 0 0 
0 0 0 0 0 0 0 0 0 
0 0 0 0 0 0 0 0 0 
0 0 0 0 0 0 0 0 0 
0 0 0 0 0 0 0 0 0 
0 0 0 0 0 0 0 0 0 
0 0 0 0 0 0 0 0 0 
0 0 0 0 0 0 0 0 0 
0 0 0 0 0 0 0 0 0 
0 0 0 0 0 0 0 0 0 
0 0 0 0 0 0 0 0 0 
0 0 0 0 0 0 0 0 0 
0 0 0 0 0 0 0 0 0 
0 0 0 0 0 0 0 0 0 
0 0 0 0 0 0 0 0 0 
0 0 0 0 0 0 0 0 0 
0 0 0 0 0 0 0 0 0 
0 0 0 0 0 0 0 0 0 
0 0 0 0 0 0 0 0 0 
0 0 0 0 0 0 0 0 0 
0 0 0 0 0 0 0 0 0 
0 0 0 0 0 0 0 0 0 
0 0 0 0 0 0 0 0 0 
0 0 0 0 0 0 0 0 0 
0 0 0 0 0 0 0 0 0 
0 0 0 0 0 0 0 0 0 
0 0 0 0 0 0 0 0 0 
0 0 0 0 0 0 0 0 0 
0 0 0 0 0 0 0 0 0 
0 0 0 0 0 0 0 0 0 
0 0 0 0 0 0 0 0 0 
0 0 0 0 0 0 0 0 0 
0 0 0 0 0 0 0 0 0 
0 0 0 0 0 0 0 0 0 
0 0 0 0 0 0 0 0 0 
0 0 0 0 0 0 0 0 0 
0 0 0 0 0 0 0 0 0 
0 0 0 0 0 0 0 0 0 
0 0 0 0 0 0 0 0 0 
0 0 0 0 0 0 0 0 0 
0 0 0 0 0 0 0 0 0 
0 0 0 0 0 0 0 0 0 
0 0 0 0 0 0 0 0 0 
0 0 0 0 0 0 0 0 0 
0 0 0 0 0 0 0 0 0 
0 0 0 0 0 0 0 0 0 
0 0 0 0 0 0 0 0 0 
0 0 0 0 0 0 0 0 0 
0 0 0 0 0 0 0 0 0 
0 0 0 0 0 0 0 0 0 
0 0 0 0 0 0 0 0 0 
0 0 0 0 0 0 0 0 0 
0 0 0 0 0 0 0 0 0 
0 0 0 0 0 0 0 0 0 
0 0 0 0 0 0 0 0 0 
0 0 0 0 0 0 0 0 0 
0 0 0 0 0 0 0 0 0 
0 0 0 0 0 0 0 0 0 
0 0 0 0 0 0 0 0 0 
0 0 0 0 0 0 0 0 0 
0 0 0 0 0 0 0 0 0 
0 0 0 0 0 0 0 0 0 
0 0 0 0 0 0 0 0 0 
0 0 0 0 0 0 0 0 0 
0 0 0 0 0 0 0 0 0 
0 0 0 0 0 0 0 0 0 
0 0 0 0 0 0 0 0 0 
0 0 0 0 0 0 0 0 0 
0 0 0 0 0 0 0 0 0 
0 0 0 0 0 0 0 0 0 
0 0 0 0 0 0 0 0 0 
0 0 0 0 0 0 0 0 0 
0 0 0 0 0 0 0 0 0 
0 0 0 0 0 0 0 0 0 
0 0 0 0 0 0 0 0 0 
0 0 0 0 0 0 0 0 0 
0 0 0 0 0 0 0 0 0 
0 0 0 0 0 0 0 0 0 
0 0 0 0 0 0 0 0 0 
0 0 0 0 0 0 0 0 0 
0 0 0 0 0 0 0 0 0 
0 0 0 0 0 0 0 0 0 
0 0 0 0 0 0 0 0 0 
0 0 0 0 0 0 0 0 0 
0 0 0 0 0 0 0 0 0 
0 0 0 0 0 0 0 0 0 
0 0 0 0 0 0 0 0 0 
0 0 0 0 0 0 0 0 0 
0 0 0 0 0 0 0 0 0 
0 0 0 0 0 0 0 0 0 
0 0 0 0 0 0 0 0 0 
0 0 0 0 0 0 0 0 0 
0 0 0 0 0 0 0 0 0 
0 0 0 0 0 0 0 0 0 
0 0 0 0 0 0 0 0 0 
0 0 0 0 0 0 0 0 0 
0 0 0 0 0 0 0 0 0 
0 0 0 0 0 0 0 0 0 
0 0 0 0 0 0 0 0 0 
0 0 0 0 0 0 0 0 0 
0 0 0 0 0 0 0 0 0 
0 0 0 0 0 0 0 0 0 
0 0 0 0 0 0 0 0 0 
0 0 0 0 0 0 0 0 0 
0 0 0 0 0 0 0 0 0 
0 0 0 0 0 0 0 0 0 
0 0 0 0 0 0 0 0 0 
0 0 0 0 0 0 0 0 0 
0 0 0 0 0 0 0 0 0 
0 0 0 0 0 0 0 0 0 
0 0 0 0 0 0 0 0 0 
0 0 0 0 0 0 0 0 0 
0 0 0 0 0 0 0 0 0 
0 0 0 0 0 0 0 0 0 
0 0 0 0 0 0 0 0 0 
0 0 0 0 0 0 0 0 0 
0 0 0 0 0 0 0 0 0 
0 0 0 0 0 0 0 0 0 
0 0 0 0 0 0 0 0 0 
0 0 0 0 0 0 0 0 0 
0 0 0 0 0 0 0 0 0 
0 0 0 0 0 0 0 0 0 
0 0 0 0 0 0 0 0 0 
0 0 0 0 0 0 0 0 0 
0 0 0 0 0 0 0 0 0 
0 0 0 0 0 0 0 0 0 
0 0 0 0 0 0 0 0 0 
0 0 0 0 0 0 0 0 0 
0 0 0 0 0 0 0 0 0 
0 0 0 0 0 0 0 0 0 
0 0 0 0 0 0 0 0 0 
0 0 0 0 0 0 0 0 0 
0 0 0 0 0 0 0 0 0 
0 0 0 0 0 0 0 0 0 
0 0 0 0 0 0 0 0 0 
0 0 0 0 0 0 0 0 0 
0 0 0 0 0 0 0 0 0 
0 0 0 0 0 0 0 0 0 
0 0 0 0 0 0 0 0 0 
0 0 0 0 0 0 0 0 0 
0 0 0 0 0 0 0 0 0 
0 0 0 0 0 0 0 0 0 
0 0 0 0 0 0 0 0 0 
0 0 0 0 0 0 0 0 0 
0 0 0 0 0 0 0 0 0 
0 0 0 0 0 0 0 0 0 
0 0 0 0 0 0 0 0 0 
0 0 0 0 0 0 0 0 0 
0 0 0 0 0 0 0 0 0 
0 0 0 0 0 0 0 0 0 
0 0 0 0 0 0 0 0 0 
0 0 0 0 0 0 0 0 0 
0 0 0 0 0 0 0 0 0 
0 0 0 0 0 0 0 0 0 
0 0 0 0 0 0 0 0 0 
0 0 0 0 0 0 0 0 0 
0 0 0 0 0 0 0 0 0 
0 0 0 0 0 0 0 0 0 
0 0 0 0 0 0 0 0 0 
0 0 0 0 0 0 0 0 0 
0 0 0 0 0 0 0 0 0 
0 0 0 0 0 0 0 0 0 
0 0 0 0 0 0 0 0 0 
0 0 0 0 0 0 0 0 0 
0 0 0 0 0 0 0 0 0 
0 0 0 0 0 0 0 0 0 
0 0 0 0 0 0 0 0 0 
0 0 0 0 0 0 0 0 0 
0 0 0 0 0 0 0 0 0 
0 0 0 0 0 0 0 0 0 
0 0 0 0 0 0 0 0 0 
0 0 0 0 0 0 0 0 0 
0 0 0 0 0 0 0 0 0 
0 0 0 0 0 0 0 0 0 
0 0 0 0 0 0 0 0 0 
0 0 0 0 0 0 0 0 0 
0 0 0 0 0 0 0 0 0 
0 0 0 0 0 0 0 0 0 
0 0 0 0 0 0 0 0 0 
0 0 0 0 0 0 0 0 0 
0 0 0 0 0 0 0 0 0 
0 0 0 0 0 0 0 0 0 
0 0 0 0 0 0 0 0 0 
0 0 0 0 0 0 0 0 0 
0 0 0 0 0 0 0 0 0 
0 0 0 0 0 0 0 0 0 
0 0 0 0 0 0 0 0 0 
0 0 0 0 0 0 0 0 0 
0 0 0 0 0 0 0 0 0 
0 0 0 0 0 0 0 0 0 
0 0 0 0 0 0 0 0 0 
0 0 0 0 0 0 0 0 0 
0 0 0 0 0 0 0 0 0 
0 0 0 0 0 0 0 0 0 
0 0 0 0 0 0 0 0 0 
0 0 0 0 0 0 0 0 0 
0 0 0 0 0 0 0 0 0 
0 0 0 0 0 0 0 0 0 
0 0 0 0 0 0 0 0 0 
0 0 0 0 0 0 0 0 0 
0 0 0 0 0 0 0 0 0 
0 0 0 0 0 0 0 0 0 
0 0 0 0 0 0 0 0 0 
0 0 0 0 0 0 0 0 0 
0 0 0 0 0 0 0 0 0 
0 0 0 0 0 0 0 0 0 
0 0 0 0 0 0 0 0 0 
0 0 0 0 0 0 0 0 0 
0 0 0 0 0 0 0 0 0 
0 0 0 0 0 0 0 0 0 
0 0 0 0 0 0 0 0 0 
0 0 0 0 0 0 0 0 0 
0 0 0 0 0 0 0 0 0 
0 0 0 0 0 0 0 0 0 
0 0 0 0 0 0 0 0 0 
0 0 0 0 0 0 0 0 0 
0 0 0 0 0 0 0 0 0 
0 0 0 0 0 0 0 0 0 
0 0 0 0 0 0 0 0 0 
0 0 0 0 0 0 0 0 0 
0 0 0 0 0 0 0 0 0 
0 0 0 0 0 0 0 0 0 
0 0 0 0 0 0 0 0 0 
0 0 0 0 0 0 0 0 0 
0 0 0 0 0 0 0 0 0 
0 0 0 0 0 0 0 0 0 
0 0 0 0 0 0 0 0 0 
0 0 0 0 0 0 0 0 0 
0 0 0 0 0 0 0 0 0 
0 0 0 0 0 0 0 0 0 
0 0 0 0 0 0 0 0 0 
0 0 0 0 0 0 0 0 0 
0 0 0 0 0 0 0 0 0 
0 0 0 0 0 0 0 0 0 
0 0 0 0 0 0 0 0 0 
0 0 0 0 0 0 0 0 0 
0 0 0 0 0 0 0 0 0 
0 0 0 0 0 0 0 0 0 
0 0 0 0 0 0 0 0 0 
0 0 0 0 0 0 0 0 0 
0 0 0 0 0 0 0 0 0 
0 0 0 0 0 0 0 0 0 
0 0 0 0 0 0 0 0 0 
0 0 0 0 0 0 0 0 0 
0 0 0 0 0 0 0 0 0 
0 0 0 0 0 0 0 0 0 
0 0 0 0 0 0 0 0 0 
0 0 0 0 0 0 0 0 0 
0 0 0 0 0 0 0 0 0 
0 0 0 0 0 0 0 0 0 
0 0 0 0 0 0 0 0 0 
0 0 0 0 0 0 0 0 0 
0 0 0 0 0 0 0 0 0 
0 0 0 0 0 0 0 0 0 
0 0 0 0 0 0 0 0 0 
0 0 0 0 0 0 0 0 0 
0 0 0 0 0 0 0 0 0 
0 0 0 0 0 0 0 0 0 
0 0 0 0 0 0 0 0 0 
0 0 0 0 0 0 0 0 0 
0 0 0 0 0 0 0 0 0 
0 0 0 0 0 0 0 0 0 
0 0 0 0 0 0 0 0 0 
0 0 0 0 0 0 0 0 0 
0 0 0 0 0 0 0 0 0 
0 0 0 0 0 0 0 0 0 
0 0 0 0 0 0 0 0 0 
0 0 0 0 0 0 0 0 0 
0 0 0 0 0 0 0 0 0 
0 0 0 0 0 0 0 0 0 
0 0 0 0 0 0 0 0 0 
0 0 0 0 0 0 0 0 0 
0 0 0 0 0 0 0 0 0 
0 0 0 0 0 0 0 0 0 
0 0 0 0 0 0 0 0 0 
0 0 0 0 0 0 0 0 0 
0 0 0 0 0 0 0 0 0 
0 0 0 0 0 0 0 0 0 
0 0 0 0 0 0 0 0 0 
0 0 0 0 0 0 0 0 0 
0 0 0 0 0 0 0 0 0 
0 0 0 0 0 0 0 0 0 
0 0 0 0 0 0 0 0 0 
0 0 0 0 0 0 0 0 0 
0 0 0 0 0 0 0 0 0 
0 0 0 0 0 0 0 0 0 
0 0 0 0 0 0 0 0 0 
0 0 0 0 0 0 0 0 0 
0 0 0 0 0 0 0 0 0 
0 0 0 0 0 0 0 0 0 
0 0 0 0 0 0 0 0 0 
0 0 0 0 0 0 0 0 0 
0 0 0 0 0 0 0 0 0 
0 0 0 0 0 0 0 0 0 
0 0 0 0 0 0 0 0 0 
0 0 0 0 0 0 0 0 0 
0 0 0 0 0 0 0 0 0 
0 0 0 0 0 0 0 0 0 
0 0 0 0 0 0 0 0 0 
0 0 0 0 0 0 0 0 0 
0 0 0 0 0 0 0 0 0 
0 0 0 0 0 0 0 0 0 
0 0 0 0 0 0 0 0 0 
0 0 0 0 0 0 0 0 0 
0 0 0 0 0 0 0 0 0 
0 0 0 0 0 0 0 0 0 
0 0 0 0 0 0 0 0 0 
0 0 0 0 0 0 0 0 0 
0 0 0 0 0 0 0 0 0 
0 0 0 0 0 0 0 0 0 
0 0 0 0 0 0 0 0 0 
0 0 0 0 0 0 0 0 0 
0 0 0 0 0 0 0 0 0 
0 0 0 0 0 0 0 0 0 
0 0 0 0 0 0 0 0 0 
0 0 0 0 0 0 0 0 0 
0 0 0 0 0 0 0 0 0 
0 0 0 0 0 0 0 0 0 
0 0 0 0 0 0 0 0 0 
0 0 0 0 0 0 0 0 0 
0 0 0 0 0 0 0 0 0 
0 0 0 0 0 0 0 0 0 
0 0 0 0 0 0 0 0 0 
0 0 0 0 0 0 0 0 0 
0 0 0 0 0 0 0 0 0 
0 0 0 0 0 0 0 0 0 
0 0 0 0 0 0 0 0 0 
0 0 0 0 0 0 0 0 0 
0 0 0 0 0 0 0 0 0 
0 0 0 0 0 0 0 0 0 
0 0 0 0 0 0 0 0 0 
0 0 0 0 0 0 0 0 0 
0 0 0 0 0 0 0 0 0 
0 0 0 0 0 0 0 0 0 
0 0 0 0 0 0 0 0 0 
0 0 0 0 0 0 0 0 0 
0 0 0 0 0 0 0 0 0 
0 0 0 0 0 0 0 0 0 
0 0 0 0 0 0 0 0 0 
0 0 0 0 0 0 0 0 0 
0 0 0 0 0 0 0 0 0 
0 0 0 0 0 0 0 0 0 
0 0 0 0 0 0 0 0 0 
0 0 0 0 0 0 0 0 0 
0 0 0 0 0 0 0 0 0 
0 0 0 0 0 0 0 0 0 
0 0 0 0 0 0 0 0 0 
0 0 0 0 0 0 0 0 0 
0 0 0 0 0 0 0 0 0 
0 0 0 0 0 0 0 0 0 
0 0 0 0 0 0 0 0 0 

NORMALS Normals float
-0 -0.0995037 -0.995037 -0.0990148 -0.0990148 -0.990148 0.0995037 -0 -0.995037 
-0.0990148 0.0990148 -0.990148 0.0995037 -0 -0.995037 -0 -0 -1 
-0 0.0995037 -0.995037 -0 -0.995037 -0.0995037 -0.667124 -0.741249 -0.0741249 
0.987878 -0.109764 -0.109764 -0.705346 -0.705346 -0.0705346 -0.990148 -0.0990148 -0.0990148 
0.995037 -0 -0.0995037 -0.990148 0.0990148 -0.0990148 0.707107 -0 -0.707107 
-0.57735 0.57735 -0.57735 0.707107 -0 -0.707107 -0.556022 0.556022 -0.617802 
0.993884 -0 -0.110432 -0.59655 0.536895 -0.59655 -0.667124 0.0741249 -0.741249 
0.987878 0.109764 -0.109764 -0 0.995037 -0.0995037 -0.707107 -0 -0.707107 
-0 0.0995037 -0.995037 -0 -0.743294 -0.668965 -0 -0.110432 -0.993884 
-0.0705346 -0.705346 -0.705346 0.109764 -0.109764 -0.987878 -0.556022 -0.617802 -0.556022 
0.704934 -0.0783261 -0.704934 -0.59655 -0.59655 -0.536895 -0.0995037 -0 -0.995037 
-0.536895 -0.59655 -0.59655 0.707107 -0 -0.707107 -0.741249 -0.0741249 -0.667124 
0.617802 -0.556022 -0.556022 0.59655 -0.536895 -0.59655 -0.707107 -0 -0.707107 
0.59655 -0.536895 -0.59655 -0.743294 -0 -0.668965 0.995037 -0 -0.0995037 
0.741249 0.667124 -0.0741249 -0.707107 -0 -0.707107 -0.707107 -0 -0.707107 
0.743294 0.668965 -0 -0.707107 -0 -0.707107 -0.707107 -0 -0.707107 
0.995037 0.0995037 -0 0.707107 0.707107 -0 -0.705346 0.0705346 -0.705346 
-0.987878 0.109764 -0.109764 0.667124 0.741249 -0.0741249 -0 0.707107 -0.707107 
-0 0.743294 -0.668965 -0 -1 -0 -0.0705346 -0.705346 -0.705346 
0.0995037 -0.995037 -0 -0 -0.743294 -0.668965 -0.993884 -0.110432 -0 
-0 -0.743294 -0.668965 -0.0705346 -0.705346 -0.705346 0.995037 -0.0995037 -0 
-0 -0.707107 -0.707107 -0.556022 -0.617802 0.556022 -0.0705346 -0.705346 -0.705346 
0.707107 -0.707107 -0 -0.995037 -0 -0.0995037 0.995037 -0 -0.0995037 
-0.995037 -0 -0.0995037 0.995037 -0 -0.0995037 -0.995037 -0 -0.0995037 
0.995037 0.0995037 -0 0.707107 0.707107 -0 -0.995037 -0 -0.0995037 
0.743294 0.668965 -0 -0.990148 0.0990148 -0.0990148 0.995037 0.0995037 -0 
-0.57735 0.57735 -0.57735 0.707107 0.707107 -0 -0.57735 0.57735 -0.57735 
0.707107 0.707107 -0 -0.0995037 -0 -0.995037 -0.536895 0.59655 -0.59655 
-0.993884 0.110432 -0 0.993884 0.110432 -0 -0 1 -0 
-0 0.743294 0.668965 -0 -1 -0 -0.668965 -0.743294 -0 
0.993884 -0.110432 -0 -0.705346 -0.705346 -0.0705346 -0 -0.743294 0.668965 
-0.615457 -0.615457 0.492366 0.743294 -0.668965 -0 -0.57735 -0.57735 0.57735 
0.707107 -0.707107 -0 0.707107 -0.707107 -0 -0.990148 -0.0990148 0.0990148 
0.995037 -0.0995037 -0 -0.57735 -0.57735 0.57735 -1 -0 -0 
1 -0 -0 -0.743294 -0 -0.668965 0.990148 0.0990148 0.0990148 
0.705346 0.705346 0.0705346 -0.741249 -0.0741249 -0.667124 0.705346 0.705346 0.0705346 
-0.743294 -0 -0.668965 0.741249 0.667124 0.0741249 -0.741249 0.0741249 -0.667124 
0.741249 0.667124 0.0741249 -0.743294 -0.668965 -0 0.990148 0.0990148 0.0990148 
-0.741249 -0.667124 -0.0741249 0.705346 0.705346 0.0705346 0.705346 0.0705346 0.705346 
-0.995037 -0 -0.0995037 0.705346 0.705346 0.0705346 -0.109764 0.987878 -0.109764 
-0 0.995037 -0.0995037 0.0705346 0.705346 0.705346 0.57735 0.57735 0.57735 
-0.0990148 -0.990148 0.0990148 -0 -0.743294 0.668965 0.0995037 -0.995037 -0 
-0.990148 -0.0990148 0.0990148 0.995037 -0.0995037 -0 -0.705346 -0.705346 0.0705346 
0.995037 -0.0995037 -0 -0.617802 -0.556022 0.556022 0.995037 -0 0.0995037 
-0.57735 -0.57735 0.57735 0.741249 -0.667124 0.0741249 -0.705346 -0.705346 0.0705346 
0.995037 0.0995037 -0 -0.707107 -0.707107 -0 0.707107 0.707107 -0 
-0.57735 -0.57735 0.57735 -0.995037 -0.0995037 -0 0.707107 0.707107 -0 
0.707107 0.707107 -0 -0.741249 -0.0741249 0.667124 0.705346 0.705346 -0.0705346 
-0.995037 0.0995037 -0 0.743294 0.668965 -0 -0.995037 0.0995037 -0 
-0.109764 0.109764 0.987878 -0.993884 -0 0.110432 0.705346 0.705346 -0.0705346 
-1 -0 -0 0.741249 0.0741249 0.667124 -0.995037 -0 0.0995037 
0.59655 0.59655 0.536895 -0.995037 -0 0.0995037 0.57735 0.57735 0.57735 
-0.109764 0.987878 0.109764 0.0990148 0.990148 0.0990148 -0.0995037 -0 0.995037 
0.0705346 0.705346 0.705346 -0 -1 -0 -0 -0.0995037 -0.995037 
-0.668965 -0.743294 -0 0.993884 -0.110432 -0 -0.705346 -0.705346 0.0705346 
-0.743294 -0.668965 -0 0.995037 -0 -0.0995037 -0.990148 -0.0990148 0.0990148 
0.743294 -0.668965 -0 0.707107 -0.707107 -0 -0.705346 -0.0705346 0.705346 
0.741249 -0.667124 -0.0741249 -0.617802 -0.556022 0.556022 0.995037 -0.0995037 -0 
-0.617802 -0.556022 0.556022 -0.743294 -0 0.668965 0.990148 0.0990148 -0.0990148 
-1 -0 -0 0.705346 0.705346 -0.0705346 -1 -0 -0 
0.705346 0.705346 -0.0705346 -0.995037 -0 0.0995037 0.705346 0.705346 -0.0705346 
-0.990148 0.0990148 -0.0990148 -0.995037 -0 0.0995037 0.707107 0.707107 -0 
-0.0741249 0.667124 0.741249 0.0995037 0.995037 -0 -0.741249 0.667124 0.0741249 
-0 -0.995037 -0.0995037 -0.667124 -0.741249 -0.0741249 0.987878 -0.109764 -0.109764 
-0.110432 -0.993884 -0 -0.668965 -0.743294 -0 -1 -0 -0 
0.995037 -0 -0.0995037 -0.743294 -0 0.668965 -0.743294 -0 0.668965 
-0.743294 -0 0.668965 0.995037 -0 -0.0995037 -0.741249 -0.0741249 0.667124 
-0.59655 -0.59655 -0.536895 1 -0 -0 -0.59655 -0.59655 -0.536895 
-0.57735 -0.57735 -0.57735 -0.995037 -0.0995037 -0 0.995037 0.0995037 -0 
0.59655 0.59655 -0.536895 -0.990148 0.0990148 -0.0990148 0.59655 0.59655 -0.536895 
-0.705346 0.705346 -0.0705346 0.707107 0.707107 -0 0.57735 0.57735 -0.57735 
-0.668965 0.743294 -0 0.668965 0.743294 -0 -0 1 -0 
-0.707107 0.707107 -0 -0 -0.995037 0.0995037 -0.574989 -0.638877 -0.511101 
0.987878 -0.109764 0.109764 -0.59655 -0.59655 -0.536895 -0.536895 -0.59655 -0.59655 
0.667124 -0.741249 0.0741249 -0.741249 -0.0741249 0.667124 1 -0 -0 
-0.617802 -0.556022 -0.556022 1 -0 -0 -0.0990148 -0.990148 -0.0990148 
-0.556022 -0.617802 -0.556022 -0.59655 -0.59655 -0.536895 -0.990148 -0.0990148 -0.0990148 
1 -0 -0 -1 -0 -0 1 -0 -0 
-1 -0 -0 0.990148 0.0990148 -0.0990148 0.556022 0.617802 -0.556022 
0.0990148 0.990148 -0.0990148 -0.995037 0.0995037 -0 0.615457 0.615457 -0.492366 
-0.0995037 0.995037 -0 0.0990148 0.990148 0.0990148 -0.0741249 0.741249 0.667124 