# vtk DataFile Version 5.1
vtk output
ASCII
DATASET POLYDATA
POINTS 8738 float
95 51 40.1 96 51 40.1 95 52 40.1 
96 52 40.1 96 53 40.1 98 49 41.1 
95 50.1 41 96 50.1 41 95 50 41.1 
96 50 41.1 97 50 41.1 98 50 41.1 
94.1 51 41 96.9 51 41 97 51 41.1 
94.1 52 41 96.9 52 41 95 52.9 41 
95 52 41.9 96 52 41.9 97 52 41.1 
95.1 53 41 96.9 53 41 96 53.9 41 
96 53 41.9 97 53 41.1 96 54 41.1 
98 48.1 42 97.1 49 42 98.9 49 42 
95 49.1 42 96 49.1 42 97 49.1 42 
95 49 42.1 96 49 42.1 98 49 42.9 
94.1 50 42 98.9 50 42 98 50.9 42 
95 50 42.9 94.1 51 42 97.9 51 42 
95 51.9 42 96 51.9 42 94 51 42.1 
95 51 42.9 98 51 42.1 96.1 52 42 
97.9 52 42 95 52 42.1 96.1 53 42 
97.9 53 42 96 53.1 42 97 53.9 42 
98 53 42.1 95.1 54 42 96.9 54 42 
96 54.9 42 97 54 42.1 98 54 42.1 
96 55 42.1 97 55 42.1 95 48.1 43 
96 48.1 43 94.1 49 43 96.9 49 43 
95 49.9 43 97 49.1 43 98 49.1 43 
95.1 50 43 98.9 50 43 94 50.1 43 
94 50 43.1 99 50 43.1 93.1 51 43 
94.9 51 43 95.1 51 43 98.9 51 43 
94 51.9 43 95 51.1 43 96 51.9 43 
98 51.9 43 94.1 52 43 95.9 52 43 
96.1 52 43 97.9 52 43 95 52.9 43 
98 52.1 43 97 52 43.9 98 52 43.1 
99 52 43.1 96.1 53 43 98.9 53 43 
96 53.1 43 95 53 43.1 97 53 43.9 
98 53 43.9 95.1 54 43 98.9 54 43 
98 54.9 43 95 54 43.1 95.1 55 43 
97.9 55 43 96 55.9 43 97 55.9 43 
97 56 43.1 95 48.1 44 96 48.1 44 
99 48 44.1 100 48 44.1 94.1 49 44 
96.9 49 44 94 49.1 44 95 49.9 44 
97 49.1 44 98 49.1 44 99 49.1 44 
96 49 44.9 93.1 50 44 94.9 50 44 
95.1 50 44 99.9 50 44 99 50.9 44 
93.1 51 44 94.9 51 44 95.1 51 44 
98.9 51 44 94 51.9 44 95 51.1 44 
96 51.9 44 97 51.9 44 99 51.1 44 
95 51 44.1 99 51 44.1 94.1 52 44 
95.9 52 44 97.1 52 44 99.9 52 44 
98 52.9 44 99 52.9 44 95 52 44.9 
97 52 44.1 94.1 53 44 95.9 53 44 
96 53.1 44 97 53.1 44 98 53.1 44 
95 53 44.9 99 53 44.1 94.1 54 44 
98.9 54 44 95 54.9 44 98 54.9 44 
95 54 44.9 95.1 55 44 97.9 55 44 
96 55.9 44 95 55 44.1 98 55 44.1 
96.1 56 44 97.9 56 44 97 56.9 44 
99 47.1 45 100 47.1 45 98.1 48 45 
100.9 48 45 95 48.1 45 99 48.9 45 
100 48.9 45 96 48 45.1 97 48 45.1 
99 48 45.9 94.1 49 45 95.9 49 45 
94 49.1 45 95 49.9 45 96 49.1 45 
97 49.1 45 98 49.1 45 99 49.1 45 
94 49 45.1 95 49 45.9 93.1 50 45 
94.9 50 45 95.1 50 45 99.9 50 45 
95 50.1 45 95 50 45.1 96 50 45.9 
97 50 45.9 93.1 51 45 99.9 51 45 
94 51.9 45 95 51.9 45 96 51.9 45 
94 51 45.9 97 51 45.9 100 51 45.1 
96.1 52 45 99.9 52 45 97 52.9 45 
98 52.9 45 95 52 45.1 96 52 45.1 
99 52 45.9 100 52 45.1 98.1 53 45 
99.9 53 45 96 53.1 45 97 53.1 45 
98 53.1 45 99 53.9 45 95 53 45.1 
97 53 45.1 98 53 45.1 95.1 54 45 
98.9 54 45 95 54.1 45 96 54 45.9 
97 54 45.9 99 54 45.1 94.1 55 45 
98.9 55 45 95 55.9 45 96 55.9 45 
98 55.9 45 95 55 45.9 97 55 45.9 
98 55 45.9 96.1 56 45 97.9 56 45 
97 56.9 45 95 56 45.1 96 56 45.1 
97 56 45.9 95 57 45.1 96 47.1 46 
97 47.1 46 100 47.1 46 95.1 48 46 
97.9 48 46 99.1 48 46 100.9 48 46 
94 48.1 46 96 48.9 46 97 48.9 46 
100 48.9 46 99 48 46.1 93.1 49 46 
94.9 49 46 95 49.1 46 98 49.1 46 
99 49.1 46 94 49 46.9 95 49 46.1 
96 49 46.1 97 49 46.1 98 49 46.1 
93.1 50 46 95.9 50 46 97.1 50 46 
99.9 50 46 94 50.9 46 96 50.1 46 
100 50.1 46 94 50 46.9 96 50 46.1 
94.1 51 46 96.9 51 46 97.1 51 46 
100.9 51 46 97 51.1 46 99 51.9 46 
94.1 52 46 98.9 52 46 99.1 52 46 
100.9 52 46 96 52.9 46 99 52.1 46 
100 52.9 46 94 52 46.1 95 52 46.9 
94.1 53 46 95.9 53 46 96.1 53 46 
99.9 53 46 95 53.9 46 97 53.9 46 
94 53 46.1 96 53 46.1 100 53 46.1 
97.1 54 46 99.9 54 46 96 54.1 46 
98 54.9 46 99 54.9 46 96 54 46.1 
97 54 46.1 98 54 46.9 99 54 46.9 
95.1 55 46 96.9 55 46 95 55.1 46 
96 55 46.9 99 55 46.1 94.1 56 46 
96.9 56 46 96 56.9 46 95 56 46.9 
97 56 46.1 94.1 57 46 95.9 57 46 
95 57.9 46 95 57 46.9 96 47.1 47 
97 47.1 47 99 47.1 47 100 47.1 47 
95.1 48 47 97.9 48 47 98.1 48 47 
100.9 48 47 95 48.1 47 98 48.1 47 
99 48.9 47 100 48.9 47 96 48 47.9 
100 48 47.9 94.1 49 47 98.9 49 47 
97 49.9 47 99 49.1 47 100 49 47.1 
94.1 50 47 96.9 50 47 97.1 50 47 
99.9 50 47 100 50.1 47 94 50 47.1 
97 50 47.1 94.1 51 47 96.9 51 47 
97.1 51 47 100.9 51 47 94 51.1 47 
95 51.9 47 97 51.1 47 99 51.9 47 
96 51 47.9 97 51 47.1 93.1 52 47 
94.9 52 47 95.1 52 47 98.9 52 47 
99.1 52 47 100.9 52 47 95 52.1 47 
99 52.1 47 93.1 53 47 100.9 53 47 
94 53.9 47 95 53.9 47 98 53.9 47 
99 53.9 47 100 53.9 47 96 53 47.9 
98 53 47.9 95.1 54 47 97.9 54 47 
96 54.9 47 97 54.9 47 99 54.1 47 
95 54 47.1 96 54 47.9 98 54 47.1 
99 54 47.1 98.1 55 47 99.9 55 47 
96 55.1 47 97 55.1 47 99 55.9 47 
95 55 47.1 97 55 47.1 100 55 47.1 
95.1 56 47 97.9 56 47 96 56.9 47 
97 56.9 47 95 56 47.1 98 56 47.1 
97 47.1 48 99 47.1 48 96.1 48 48 
97.9 48 48 98.1 48 48 99.9 48 48 
95 48.1 48 96 48.1 48 98 48.1 48 
99 48.9 48 100 48.1 48 96 48 48.1 
99 48 48.9 94.1 49 48 98.9 49 48 
99.1 49 48 100.9 49 48 94 49.1 48 
99 49.1 48 100 49.9 48 95 49 48.9 
99 49 48.1 93.1 50 48 99.9 50 48 
94 50.9 48 96 50.9 48 100 50.1 48 
94 50 48.9 96 50 48.9 99 50 48.9 
94.1 51 48 95.9 51 48 96.1 51 48 
100.9 51 48 94 51.1 48 95 51.9 48 
96 51.1 48 99 51.9 48 96 51 48.1 
97 51 48.9 98 51 48.9 100 51 48.9 
93.1 52 48 94.9 52 48 95.1 52 48 
98.9 52 48 99.1 52 48 100.9 52 48 
95 52.1 48 96 52.9 48 98 52.9 48 
99 52.1 48 94 52 48.9 95 52 48.1 
98 52 48.9 99 52 48.1 93.1 53 48 
95.9 53 48 96.1 53 48 97.9 53 48 
98.1 53 48 100.9 53 48 94 53.9 48 
98 53.1 48 100 53.9 48 94 53 48.9 
95 53 48.9 98 53 48.1 99 53 48.9 
100 53 48.9 94.1 54 48 95.9 54 48 
96.1 54 48 99.9 54 48 98 54.9 48 
100 54.1 48 97 54 48.9 100 54 48.1 
94.1 55 48 95.9 55 48 96.1 55 48 
97.9 55 48 98.1 55 48 100.9 55 48 
96 55.1 48 98 55.1 48 99 55.9 48 
100 55.9 48 95 55 48.9 97 55 48.9 
99 55 48.9 94.1 56 48 98.9 56 48 
95 56.9 48 96 56.9 48 97 56.9 48 
98 56.9 48 95 56 48.9 96 56 48.9 
98 56 48.9 99 56 48.1 95 57 48.1 
96 57 48.1 97 57 48.1 98 46 49.1 
96 47.1 49 97 47.1 49 96 47 49.1 
95.1 48 49 97.9 48 49 98 48.1 49 
99 48.1 49 100 48.1 49 95 48 49.1 
98 48 49.1 95.1 49 49 100.9 49 49 
95 49.1 49 96 49.9 49 99 49.9 49 
100 49.9 49 95 49 49.1 99 49 49.9 
100 49 49.9 94.1 50 49 95.9 50 49 
96.1 50 49 98.9 50 49 96 50.1 49 
97 50.9 49 98 50.9 49 99 50.1 49 
95 50 49.9 97 50 49.9 94.1 51 49 
96.9 51 49 98.1 51 49 99.9 51 49 
97 51.1 49 100 51.1 49 97 51 49.1 
98 51 49.1 94.1 52 49 97.9 52 49 
98.1 52 49 100.9 52 49 95 52.9 49 
96 52.9 49 98 52.1 49 99 52.9 49 
100 52.9 49 95 52 49.9 100 52 49.9 
96.1 53 49 98.9 53 49 95 53.1 49 
97 53.9 49 99 53.1 49 100 53.1 49 
100 53 49.1 94.1 54 49 95.9 54 49 
97.1 54 49 100.9 54 49 95 54.9 49 
98 54.9 49 99 54.9 49 95 54 49.9 
97 54 49.1 99.1 55 49 100.9 55 49 
97 55.1 49 99 55.1 49 100 55.9 49 
99 55 49.1 96.1 56 49 97.9 56 49 
98.1 56 49 99.9 56 49 95 56.1 49 
96 56.1 49 99 56.9 49 98 56 49.1 
94.1 57 49 97.9 57 49 95 57.9 49 
96 57.9 49 97 57.9 49 95 57 49.9 
96 57 49.9 97 57 49.9 98 45.1 50 
97.1 46 50 98.9 46 50 96 46.1 50 
98 46.9 50 95.1 47 50 96.9 47 50 
95 47.1 50 97 47.1 50 98 47.1 50 
95 47 50.1 97 47 50.1 98 47 50.1 
94.1 48 50 98.9 48 50 94 48 50.1 
98 48 50.9 94.1 49 50 98.9 49 50 
95 49.9 50 96 49.9 50 97 49.9 50 
94 49 50.1 96 49 50.9 97.1 50 50 
98.9 50 50 95 50.1 50 96 50.1 50 
97 50.1 50 99 50.1 50 95 50 50.1 
96 50 50.1 97 50 50.1 94.1 51 50 
99.9 51 50 95 51.9 50 98 51.9 50 
94 51 50.1 97 51 50.9 98 51 50.9 
99 51 50.9 95.1 52 50 97.9 52 50 
98.1 52 50 99.9 52 50 96 52.9 50 
98 52.1 50 99 52.9 50 100 52.1 50 
94 52 50.1 99 52 50.9 96.1 53 50 
98.9 53 50 99.1 53 50 100.9 53 50 
99 53.1 50 97 53 50.9 98 53 50.9 
99 53 50.1 101 53 50.1 96.1 54 50 
100.9 54 50 97 54.9 50 98 54.9 50 
101 54 50.1 98.1 55 50 100.9 55 50 
97 55.1 50 98 55.1 50 100 55.9 50 
98 55 50.1 96.1 56 50 99.9 56 50 
97 56.9 50 98 56.9 50 99 56.9 50 
98 56 50.9 99 56 50.9 100 56 50.1 
97 57 50.1 98 57 50.1 99 57 50.1 
98 58 50.1 99 58 50.1 98 45.1 51 
97.1 46 51 98.9 46 51 95 46.1 51 
96 46.1 51 97 46.1 51 99 46 51.1 
94.1 47 51 98.9 47 51 94 47.1 51 
98 47.9 51 94 47 51.1 98 47 51.9 
93.1 48 51 97.9 48 51 96 48.9 51 
98 48.1 51 93 48 51.1 93.1 49 51 
95.9 49 51 96.1 49 51 98.9 49 51 
94 49.9 51 96 49.1 51 93 49 51.1 
95 49 51.9 98 49 51.9 94.1 50 51 
98.9 50 51 94 50.1 51 97 50.9 51 
98 50.9 51 96 50 51.9 93.1 51 51 
96.9 51 51 95 51.9 51 97 51.1 51 
93.1 52 51 94.9 52 51 95.1 52 51 
97.9 52 51 94 52.9 51 96 52.9 51 
97 52.9 51 99 52.1 51 100 52.1 51 
101 52.1 51 97 52 51.9 98.1 53 51 
101.9 53 51 97 53.1 51 98 53.1 51 
94 53 51.1 100 53 51.9 101 53 51.9 
96.1 54 51 101.9 54 51 97 54.9 51 
101 54.9 51 97 54 51.9 97.1 55 51 
100.9 55 51 97 55.1 51 98 55.9 51 
99 55.9 51 99 55 51.9 101 55 51.1 
96.1 56 51 97.9 56 51 99.1 56 51 
100.9 56 51 98 56.1 51 99 56.1 51 
100 56.9 51 98 56 51.1 96.1 57 51 
99.9 57 51 97 57.9 51 100 57 51.1 
97.1 58 51 99.9 58 51 98 58.9 51 
99 58.9 51 98 58 51.9 99 58 51.9 
98 59 51.1 96 44 52.1 98 45.1 52 
99 45.1 52 97.1 46 52 99.9 46 52 
94 46.1 52 95 46.1 52 96 46.1 52 
97 46.1 52 98 46.9 52 99 46.9 52 
98 46 52.9 93.1 47 52 97.9 47 52 
93 47.1 52 93 47 52.1 97 47 52.9 
92.1 48 52 97.9 48 52 95 48.9 52 
96 48.9 52 94 48 52.9 95 48 52.9 
92.1 49 52 94.9 49 52 96.1 49 52 
97.9 49 52 93 49.9 52 94 49.9 52 
95 49.1 52 98 49.1 52 92 49 52.1 
95 49 52.1 94.1 50 52 95.9 50 52 
96.1 50 52 98.9 50 52 94 50.1 52 
96 50.1 52 97 50.9 52 98 50.9 52 
93 50 52.1 96 50 52.1 97 50 52.9 
98 50 52.9 93.1 51 52 96.9 51 52 
95 51.9 52 93 51 52.1 96 51 52.9 
93.1 52 52 94.9 52 52 95.1 52 52 
96.9 52 52 96 52.9 52 99 52.1 52 
94 52 52.9 95 52 52.1 93.1 53 52 
94.9 53 52 98.1 53 52 99.9 53 52 
94 53.9 52 98 53.1 52 100 53.1 52 
101 53.1 52 99 53 52.9 97.1 54 52 
101.9 54 52 99 54.9 52 101 54 52.9 
97.1 55 52 98.9 55 52 99.1 55 52 
101.9 55 52 97 55.1 52 101 55.9 52 
101 55 52.9 96.1 56 52 98.9 56 52 
99.1 56 52 100.9 56 52 99 56.1 52 
99 56 52.1 96.1 57 52 100.9 57 52 
97 57.9 52 98 57.9 52 99 57.9 52 
100 57.9 52 98 57 52.9 98 58.1 52 
97 58 52.1 98 58 52.1 99 58 52.1 
100 58 52.1 97.1 59 52 98.9 59 52 
98 59.9 52 96 43.1 53 95.1 44 53 
96.9 44 53 96 44.9 53 95 44 53.1 
99 45.1 53 96 45 53.1 97 45 53.1 
98.1 46 53 99.9 46 53 93 46.1 53 
94 46.1 53 95 46.1 53 96 46.1 53 
99 46.9 53 94 46 53.1 95 46 53.1 
[...]
POINT_DATA 8738
SCALARS scalars char
LOOKUP_TABLE default
0 0 0 0 0 0 0 0 0 
0 0 0 0 0 0 0 0 0 
0 0 0 0 0 0 0 0 0 
0 0 0 0 0 0 0 0 0 
0 0 0 0 0 0 0 0 0 
0 0 0 0 0 0 0 0 0 
0 0 0 0 0 0 0 0 0 
0 0 0 0 0 0 0 0 0 
0 0 0 0 0 0 0 0 0 
0 0 0 0 0 0 0 0 0 
0 0 0 0 0 0 0 0 0 
0 0 0 0 0 0 0 0 0 
0 0 0 0 0 0 0 0 0 
0 0 0 0 0 0 0 0 0 
0 0 0 0 0 0 0 0 0 
0 0 0 0 0 0 0 0 0 
0 0 0 0 0 0 0 0 0 
0 0 0 0 0 0 0 0 0 
0 0 0 0 0 0 0 0 0 
0 0 0 0 0 0 0 0 0 
0 0 0 0 0 0 0 0 0 
0 0 0 0 0 0 0 0 0 
0 0 0 0 0 0 0 0 0 
0 0 0 0 0 0 0 0 0 
0 0 0 0 0 0 0 0 0 
0 0 0 0 0 0 0 0 0 
0 0 0 0 0 0 0 0 0 
0 0 0 0 0 0 0 0 0 
0 0 0 0 0 0 0 0 0 
0 0 0 0 0 0 0 0 0 
0 0 0 0 0 0 0 0 0 
0 0 0 0 0 0 0 0 0 
0 0 0 0 0 0 0 0 0 
0 0 0 0 0 0 0 0 0 
0 0 0 0 0 0 0 0 0 
0 0 0 0 0 0 0 0 0 
0 0 0 0 0 0 0 0 0 
0 0 0 0 0 0 0 0 0 
0 0 0 0 0 0 0 0 0 
0 0 0 0 0 0 0 0 0 
0 0 0 0 0 0 0 0 0 
0 0 0 0 0 0 0 0 0 
0 0 0 0 0 0 0 0 0 
0 0 0 0 0 0 0 0 0 
0 0 0 0 0 0 0 0 0 
0 0 0 0 0 0 0 0 0 
0 0 0 0 0 0 0 0 0 
0 0 0 0 0 0 0 0 0 
0 0 0 0 0 0 0 0 0 
0 0 0 0 0 0 0 0 0 
0 0 0 0 0 0 0 0 0 
0 0 0 0 0 0 0 0 0 
0 0 0 0 0 0 0 0 0 
0 0 0 0 0 0 0 0 0 
0 0 0 0 0 0 0 0 0 
0 0 0 0 0 0 0 0 0 
0 0 0 0 0 0 0 0 0 
0 0 0 0 0 0 0 0 0 
0 0 0 0 0 0 0 0 0 
0 0 0 0 0 0 0 0 0 
0 0 0 0 0 0 0 0 0 
0 0 0 0 0 0 0 0 0 
0 0 0 0 0 0 0 0 0 
0 0 0 0 0 0 0 0 0 
0 0 0 0 0 0 0 0 0 
0 0 0 0 0 0 0 0 0 
0 0 0 0 0 0 0 0 0 
0 0 0 0 0 0 0 0 0 
0 0 0 0 0 0 0 0 0 
0 0 0 0 0 0 0 0 0 
0 0 0 0 0 0 0 0 0 
0 0 0 0 0 0 0 0 0 
0 0 0 0 0 0 0 0 0 
0 0 0 0 0 0 0 0 0 
0 0 0 0 0 0 0 0 0 
0 0 0 0 0 0 0 0 0 
0 0 0 0 0 0 0 0 0 
0 0 0 0 0 0 0 0 0 
0 0 0 0 0 0 0 0 0 
0 0 0 0 0 0 0 0 0 
0 0 0 0 0 0 0 0 0 
0 0 0 0 0 0 0 0 0 
0 0 0 0 0 0 0 0 0 
0 0 0 0 0 0 0 0 0 
0 0 0 0 0 0 0 0 0 
0 0 0 0 0 0 0 0 0 
0 0 0 0 0 0 0 0 0 
0 0 0 0 0 0 0 0 0 
0 0 0 0 0 0 0 0 0 
0 0 0 0 0 0 0 0 0 
0 0 0 0 0 0 0 0 0 
0 0 0 0 0 0 0 0 0 
0 0 0 0 0 0 0 0 0 
0 0 0 0 0 0 0 0 0 
0 0 0 0 0 0 0 0 0 
0 0 0 0 0 0 0 0 0 
0 0 0 0 0 0 0 0 0 
0 0 0 0 0 0 0 0 0 
0 0 0 0 0 0 0 0 0 
0 0 0 0 0 0 0 0 0 
0 0 0 0 0 0 0 0 0 
0 0 0 0 0 0 0 0 0 
0 0 0 0 0 0 0 0 0 
0 0 0 0 0 0 0 0 0 
0 0 0 0 0 0 0 0 0 
0 0 0 0 0 0 0 0 0 
0 0 0 0 0 0 0 0 0 
0 0 0 0 0 0 0 0 0 
0 0 0 0 0 0 0 0 0 
0 0 0 0 0 0 0 0 0 
0 0 0 0 0 0 0 0 0 
0 0 0 0 0 0 0 0 0 
0 0 0 0 0 0 0 0 0 
0 0 0 0 0 0 0 0 0 
0 0 0 0 0 0 0 0 0 
0 0 0 0 0 0 0 0 0 
0 0 0 0 0 0 0 0 0 
0 0 0 0 0 0 0 0 0 
0 0 0 0 0 0 0 0 0 
0 0 0 0 0 0 0 0 0 
0 0 0 0 0 0 0 0 0 
0 0 0 0 0 0 0 0 0 
0 0 0 0 0 0 0 0 0 
0 0 0 0 0 0 0 0 0 
0 0 0 0 0 0 0 0 0 
0 0 0 0 0 0 0 0 0 
0 0 0 0 0 0 0 0 0 
0 0 0 0 0 0 0 0 0 
0 0 0 0 0 0 0 0 0 
0 0 0 0 0 0 0 0 0 
0 0 0 0 0 0 0 0 0 
0 0 0 0 0 0 0 0 0 
0 0 0 0 0 0 0 0 0 
0 0 0 0 0 0 0 0 0 
0 0 0 0 0 0 0 0 0 
0 0 0 0 0 0 0 0 0 
0 0 0 0 0 0 0 0 0 
0 0 0 0 0 0 0 0 0 
0 0 0 0 0 0 0 0 0 
0 0 0 0 0 0 0 0 0 
0 0 0 0 0 0 0 0 0 
0 0 0 0 0 0 0 0 0 
0 0 0 0 0 0 0 0 0 
0 0 0 0 0 0 0 0 0 
0 0 0 0 0 0 0 0 0 
0 0 0 0 0 0 0 0 0 
0 0 0 0 0 0 0 0 0 
0 0 0 0 0 0 0 0 0 
0 0 0 0 0 0 0 0 0 
0 0 0 0 0 0 0 0 0 
0 0 0 0 0 0 0 0 0 
0 0 0 0 0 0 0 0 0 
0 0 0 0 0 0 0 0 0 
0 0 0 0 0 0 0 0 0 
0 0 0 0 0 0 0 0 0 
0 0 0 0 0 0 0 0 0 
0 0 0 0 0 0 0 0 0 
0 0 0 0 0 0 0 0 0 
0 0 0 0 0 0 0 0 0 
0 0 0 0 0 0 0 0 0 
0 0 0 0 0 0 0 0 0 
0 0 0 0 0 0 0 0 0 
0 0 0 0 0 0 0 0 0 
0 0 0 0 0 0 0 0 0 
0 0 0 0 0 0 0 0 0 
0 0 0 0 0 0 0 0 0 
0 0 0 0 0 0 0 0 0 
0 0 0 0 0 0 0 0 0 
0 0 0 0 0 0 0 0 0 
0 0 0 0 0 0 0 0 0 
0 0 0 0 0 0 0 0 0 
0 0 0 0 0 0 0 0 0 
0 0 0 0 0 0 0 0 0 
0 0 0 0 0 0 0 0 0 
0 0 0 0 0 0 0 0 0 
0 0 0 0 0 0 0 0 0 
0 0 0 0 0 0 0 0 0 
0 0 0 0 0 0 0 0 0 
0 0 0 0 0 0 0 0 0 
0 0 0 0 0 0 0 0 0 
0 0 0 0 0 0 0 0 0 
0 0 0 0 0 0 0 0 0 
0 0 0 0 0 0 0 0 0 
0 0 0 0 0 0 0 0 0 
0 0 0 0 0 0 0 0 0 
0 0 0 0 0 0 0 0 0 
0 0 0 0 0 0 0 0 0 
0 0 0 0 0 0 0 0 0 
0 0 0 0 0 0 0 0 0 
0 0 0 0 0 0 0 0 0 
0 0 0 0 0 0 0 0 0 
0 0 0 0 0 0 0 0 0 
0 0 0 0 0 0 0 0 0 
0 0 0 0 0 0 0 0 0 
0 0 0 0 0 0 0 0 0 
0 0 0 0 0 0 0 0 0 
0 0 0 0 0 0 0 0 0 
0 0 0 0 0 0 0 0 0 
0 0 0 0 0 0 0 0 0 
0 0 0 0 0 0 0 0 0 
0 0 0 0 0 0 0 0 0 
0 0 0 0 0 0 0 0 0 
0 0 0 0 0 0 0 0 0 
0 0 0 0 0 0 0 0 0 
0 0 0 0 0 0 0 0 0 
0 0 0 0 0 0 0 0 0 
0 0 0 0 0 0 0 0 0 
0 0 0 0 0 0 0 0 0 
0 0 0 0 0 0 0 0 0 
0 0 0 0 0 0 0 0 0 
0 0 0 0 0 0 0 0 0 
0 0 0 0 0 0 0 0 0 
0 0 0 0 0 0 0 0 0 
0 0 0 0 0 0 0 0 0 
0 0 0 0 0 0 0 0 0 
0 0 0 0 0 0 0 0 0 
0 0 0 0 0 0 0 0 0 
0 0 0 0 0 0 0 0 0 
0 0 0 0 0 0 0 0 0 
0 0 0 0 0 0 0 0 0 
0 0 0 0 0 0 0 0 0 
0 0 0 0 0 0 0 0 0 
0 0 0 0 0 0 0 0 0 
0 0 0 0 0 0 0 0 0 
0 0 0 0 0 0 0 0 0 
0 0 0 0 0 0 0 0 0 
0 0 0 0 0 0 0 0 0 
0 0 0 0 0 0 0 0 0 
0 0 0 0 0 0 0 0 0 
0 0 0 0 0 0 0 0 0 
0 0 0 0 0 0 0 0 0 
0 0 0 0 0 0 0 0 0 
0 0 0 0 0 0 0 0 0 
0 0 0 0 0 0 0 0 0 
0 0 0 0 0 0 0 0 0 
0 0 0 0 0 0 0 0 0 
0 0 0 0 0 0 0 0 0 
0 0 0 0 0 0 0 0 0 
0 0 0 0 0 0 0 0 0 
0 0 0 0 0 0 0 0 0 
0 0 0 0 0 0 0 0 0 
0 0 0 0 0 0 0 0 0 
0 0 0 0 0 0 0 0 0 
0 0 0 0 0 0 0 0 0 
0 0 0 0 0 0 0 0 0 
0 0 0 0 0 0 0 0 0 
0 0 0 0 0 0 0 0 0 
0 0 0 0 0 0 0 0 0 
0 0 0 0 0 0 0 0 0 
0 0 0 0 0 0 0 0 0 
0 0 0 0 0 0 0 0 0 
0 0 0 0 0 0 0 0 0 
0 0 0 0 0 0 0 0 0 
0 0 0 0 0 0 0 0 0 
0 0 0 0 0 0 0 0 0 
0 0 0 0 0 0 0 0 0 
0 0 0 0 0 0 0 0 0 
0 0 0 0 0 0 0 0 0 
0 0 0 0 0 0 0 0 0 
0 0 0 0 0 0 0 0 0 
0 0 0 0 0 0 0 0 0 
0 0 0 0 0 0 0 0 0 
0 0 0 0 0 0 0 0 0 
0 0 0 0 0 0 0 0 0 
0 0 0 0 0 0 0 0 0 
0 0 0 0 0 0 0 0 0 
0 0 0 0 0 0 0 0 0 
0 0 0 0 0 0 0 0 0 
0 0 0 0 0 0 0 0 0 
0 0 0 0 0 0 0 0 0 
0 0 0 0 0 0 0 0 0 
0 0 0 0 0 0 0 0 0 
0 0 0 0 0 0 0 0 0 
0 0 0 0 0 0 0 0 0 
0 0 0 0 0 0 0 0 0 
0 0 0 0 0 0 0 0 0 
0 0 0 0 0 0 0 0 0 
0 0 0 0 0 0 0 0 0 
0 0 0 0 0 0 0 0 0 
0 0 0 0 0 0 0 0 0 
0 0 0 0 0 0 0 0 0 
0 0 0 0 0 0 0 0 0 
0 0 0 0 0 0 0 0 0 
0 0 0 0 0 0 0 0 0 
0 0 0 0 0 0 0 0 0 
0 0 0 0 0 0 0 0 0 
0 0 0 0 0 0 0 0 0 
0 0 0 0 0 0 0 0 0 
0 0 0 0 0 0 0 0 0 
0 0 0 0 0 0 0 0 0 
0 0 0 0 0 0 0 0 0 
0 0 0 0 0 0 0 0 0 
0 0 0 0 0 0 0 0 0 
0 0 0 0 0 0 0 0 0 
0 0 0 0 0 0 0 0 0 
0 0 0 0 0 0 0 0 0 
0 0 0 0 0 0 0 0 0 
0 0 0 0 0 0 0 0 0 
0 0 0 0 0 0 0 0 0 
0 0 0 0 0 0 0 0 0 
0 0 0 0 0 0 0 0 0 
0 0 0 0 0 0 0 0 0 
0 0 0 0 0 0 0 0 0 
0 0 0 0 0 0 0 0 0 
0 0 0 0 0 0 0 0 0 
0 0 0 0 0 0 0 0 0 
0 0 0 0 0 0 0 0 0 
0 0 0 0 0 0 0 0 0 
0 0 0 0 0 0 0 0 0 
0 0 0 0 0 0 0 0 0 
0 0 0 0 0 0 0 0 0 
0 0 0 0 0 0 0 0 0 
0 0 0 0 0 0 0 0 0 
0 0 0 0 0 0 0 0 0 
0 0 0 0 0 0 0 0 0 
0 0 0 0 0 0 0 0 0 
0 0 0 0 0 0 0 0 0 
0 0 0 0 0 0 0 0 0 
0 0 0 0 0 0 0 0 0 
0 0 0 0 0 0 0 0 0 
0 0 0 0 0 0 0 0 0 
0 0 0 0 0 0 0 0 0 
0 0 0 0 0 0 0 0 0 
0 0 0 0 0 0 0 0 0 
0 0 0 0 0 0 0 0 0 
0 0 0 0 0 0 0 0 0 
0 0 0 0 0 0 0 0 0 
0 0 0 0 0 0 0 0 0 
0 0 0 0 0 0 0 0 0 
0 0 0 0 0 0 0 0 0 
0 0 0 0 0 0 0 0 0 
0 0 0 0 0 0 0 0 0 
0 0 0 0 0 0 0 0 0 
0 0 0 0 0 0 0 0 0 
0 0 0 0 0 0 0 0 0 
0 0 0 0 0 0 0 0 0 
0 0 0 0 0 0 0 0 0 
0 0 0 0 0 0 0 0 0 
0 0 0 0 0 0 0 0 0 
0 0 0 0 0 0 0 0 0 
0 0 0 0 0 0 0 0 0 
0 0 0 0 0 0 0 0 0 
0 0 0 0 0 0 0 0 0 
0 0 0 0 0 0 0 0 0 
0 0 0 0 0 0 0 0 0 
0 0 0 0 0 0 0 0 0 
0 0 0 0 0 0 0 0 0 
0 0 0 0 0 0 0 0 0 
0 0 0 0 0 0 0 0 0 
0 0 0 0 0 0 0 0 0 
0 0 0 0 0 0 0 0 0 
0 0 0 0 0 0 0 0 0 
0 0 0 0 0 0 0 0 0 
0 0 0 0 0 0 0 0 0 
0 0 0 0 0 0 0 0 0 
0 0 0 0 0 0 0 0 0 
0 0 0 0 0 0 0 0 0 
0 0 0 0 0 0 0 0 0 
0 0 0 0 0 0 0 0 0 
0 0 0 0 0 0 0 0 0 
0 0 0 0 0 0 0 0 0 
0 0 0 0 0 0 0 0 0 
0 0 0 0 0 0 0 0 0 
0 0 0 0 0 0 0 0 0 
0 0 0 0 0 0 0 0 0 
0 0 0 0 0 0 0 0 0 
0 0 0 0 0 0 0 0 0 
0 0 0 0 0 0 0 0 0 
0 0 0 0 0 0 0 0 0 
0 0 0 0 0 0 0 0 0 
0 0 0 0 0 0 0 0 0 
0 0 0 0 0 0 0 0 0 
0 0 0 0 0 0 0 0 0 
0 0 0 0 0 0 0 0 0 
0 0 0 0 0 0 0 0 0 
0 0 0 0 0 0 0 0 0 
0 0 0 0 0 0 0 0 0 
0 0 0 0 0 0 0 0 0 
0 0 0 0 0 0 0 0 0 
0 0 0 0 0 0 0 0 0 
0 0 0 0 0 0 0 0 0 
0 0 0 0 0 0 0 0 0 
0 0 0 0 0 0 0 0 0 
0 0 0 0 0 0 0 0 0 
0 0 0 0 0 0 0 0 0 
0 0 0 0 0 0 0 0 0 
0 0 0 0 0 0 0 0 0 
0 0 0 0 0 0 0 0 0 
0 0 0 0 0 0 0 0 0 
0 0 0 0 0 0 0 0 0 
0 0 0 0 0 0 0 0 0 
0 0 0 0 0 0 0 0 0 
0 0 0 0 0 0 0 0 0 
0 0 0 0 0 0 0 0 0 
0 0 0 0 0 0 0 0 0 
0 0 0 0 0 0 0 0 0 
0 0 0 0 0 0 0 0 0 
0 0 0 0 0 0 0 0 0 
0 0 0 0 0 0 0 0 0 
0 0 0 0 0 0 0 0 0 
0 0 0 0 0 0 0 0 0 
0 0 0 0 0 0 0 0 0 
0 0 0 0 0 0 0 0 0 
0 0 0 0 0 0 0 0 0 
0 0 0 0 0 0 0 0 0 
0 0 0 0 0 0 0 0 0 
0 0 0 0 0 0 0 0 0 
0 0 0 0 0 0 0 0 0 
0 0 0 0 0 0 0 0 0 
0 0 0 0 0 0 0 0 0 
0 0 0 0 0 0 0 0 0 
0 0 0 0 0 0 0 0 0 
0 0 0 0 0 0 0 0 0 
0 0 0 0 0 0 0 0 0 
0 0 0 0 0 0 0 0 0 
0 0 0 0 0 0 0 0 0 
0 0 0 0 0 0 0 0 0 
0 0 0 0 0 0 0 0 0 
0 0 0 0 0 0 0 0 0 
0 0 0 0 0 0 0 0 0 
0 0 0 0 0 0 0 0 0 
0 0 0 0 0 0 0 0 0 
0 0 0 0 0 0 0 0 0 
0 0 0 0 0 0 0 0 0 
0 0 0 0 0 0 0 0 0 
0 0 0 0 0 0 0 0 0 
0 0 0 0 0 0 0 0 0 
0 0 0 0 0 0 0 0 0 
0 0 0 0 0 0 0 0 0 
0 0 0 0 0 0 0 0 0 
0 0 0 0 0 0 0 0 0 
0 0 0 0 0 0 0 0 0 
0 0 0 0 0 0 0 0 0 
0 0 0 0 0 0 0 0 0 
0 0 0 0 0 0 0 0 0 
0 0 0 0 0 0 0 0 0 
0 0 0 0 0 0 0 0 0 
0 0 0 0 0 0 0 0 0 
0 0 0 0 0 0 0 0 0 
0 0 0 0 0 0 0 0 0 
0 0 0 0 0 0 0 0 0 
0 0 0 0 0 0 0 0 0 
0 0 0 0 0 0 0 0 0 
0 0 0 0 0 0 0 0 0 
0 0 0 0 0 0 0 0 0 
0 0 0 0 0 0 0 0 0 
0 0 0 0 0 0 0 0 0 
0 0 0 0 0 0 0 0 0 
0 0 0 0 0 0 0 0 0 
0 0 0 0 0 0 0 0 0 
0 0 0 0 0 0 0 0 0 
0 0 0 0 0 0 0 0 0 
0 0 0 0 0 0 0 0 0 
0 0 0 0 0 0 0 0 0 
0 0 0 0 0 0 0 0 0 
0 0 0 0 0 0 0 0 0 
0 0 0 0 0 0 0 0 0 
0 0 0 0 0 0 0 0 0 
0 0 0 0 0 0 0 0 0 
0 0 0 0 0 0 0 0 0 
0 0 0 0 0 0 0 0 0 
0 0 0 0 0 0 0 0 0 
0 0 0 0 0 0 0 0 0 
0 0 0 0 0 0 0 0 0 
0 0 0 0 0 0 0 0 0 
0 0 0 0 0 0 0 0 0 
0 0 0 0 0 0 0 0 0 
0 0 0 0 0 0 0 0 0 
0 0 0 0 0 0 0 0 0 
0 0 0 0 0 0 0 0 0 
0 0 0 0 0 0 0 0 0 
0 0 0 0 0 0 0 0 0 
0 0 0 0 0 0 0 0 0 
0 0 0 0 0 0 0 0 0 
0 0 0 0 0 0 0 0 0 
0 0 0 0 0 0 0 0 0 
0 0 0 0 0 0 0 0 0 
0 0 0 0 0 0 0 0 0 
0 0 0 0 0 0 0 0 0 
0 0 0 0 0 0 0 0 0 
0 0 0 0 0 0 0 0 0 
0 0 0 0 0 0 0 0 0 
0 0 0 0 0 0 0 0 0 
0 0 0 0 0 0 0 0 0 
0 0 0 0 0 0 0 0 0 
0 0 0 0 0 0 0 0 0 
0 0 0 0 0 0 0 0 0 
0 0 0 0 0 0 0 0 0 
0 0 0 0 0 0 0 0 0 
0 0 0 0 0 0 0 0 0 
0 0 0 0 0 0 0 0 0 
0 0 0 0 0 0 0 0 0 
0 0 0 0 0 0 0 0 0 
0 0 0 0 0 0 0 0 0 
0 0 0 0 0 0 0 0 0 
0 0 0 0 0 0 0 0 0 
0 0 0 0 0 0 0 0 0 
0 0 0 0 0 0 0 0 0 
0 0 0 0 0 0 0 0 0 
0 0 0 0 0 0 0 0 0 
0 0 0 0 0 0 0 0 0 
0 0 0 0 0 0 0 0 0 
0 0 0 0 0 0 0 0 0 
0 0 0 0 0 0 0 0 0 
0 0 0 0 0 0 0 0 0 
0 0 0 0 0 0 0 0 0 
0 0 0 0 0 0 0 0 0 
0 0 0 0 0 0 0 0 0 
0 0 0 0 0 0 0 0 0 
0 0 0 0 0 0 0 0 0 
0 0 0 0 0 0 0 0 0 
0 0 0 0 0 0 0 0 0 
0 0 0 0 0 0 0 0 0 
0 0 0 0 0 0 0 0 0 
0 0 0 0 0 0 0 0 0 
0 0 0 0 0 0 0 0 0 
0 0 0 0 0 0 0 0 0 
0 0 0 0 0 0 0 0 0 
0 0 0 0 0 0 0 0 0 
0 0 0 0 0 0 0 0 0 
0 0 0 0 0 0 0 0 0 
0 0 0 0 0 0 0 0 0 
0 0 0 0 0 0 0 0 0 
0 0 0 0 0 0 0 0 0 
0 0 0 0 0 0 0 0 0 
0 0 0 0 0 0 0 0 0 
0 0 0 0 0 0 0 0 0 
0 0 0 0 0 0 0 0 0 
0 0 0 0 0 0 0 0 0 
0 0 0 0 0 0 0 0 0 
0 0 0 0 0 0 0 0 0 
0 0 0 0 0 0 0 0 0 
0 0 0 0 0 0 0 0 0 
0 0 0 0 0 0 0 0 0 
0 0 0 0 0 0 0 0 0 
0 0 0 0 0 0 0 0 0 
0 0 0 0 0 0 0 0 0 
0 0 0 0 0 0 0 0 0 
0 0 0 0 0 0 0 0 0 
0 0 0 0 0 0 0 0 0 
0 0 0 0 0 0 0 0 0 
0 0 0 0 0 0 0 0 0 
0 0 0 0 0 0 0 0 0 
0 0 0 0 0 0 0 0 0 
0 0 0 0 0 0 0 0 0 
0 0 0 0 0 0 0 0 0 
0 0 0 0 0 0 0 0 0 
0 0 0 0 0 0 0 0 0 
0 0 0 0 0 0 0 0 0 
0 0 0 0 0 0 0 0 0 
0 0 0 0 0 0 0 0 0 
0 0 0 0 0 0 0 0 0 
0 0 0 0 0 0 0 0 0 
0 0 0 0 0 0 0 0 0 
0 0 0 0 0 0 0 0 0 
0 0 0 0 0 0 0 0 0 
0 0 0 0 0 0 0 0 0 
0 0 0 0 0 0 0 0 0 
0 0 0 0 0 0 0 0 0 
0 0 0 0 0 0 0 0 0 
0 0 0 0 0 0 0 0 0 
0 0 0 0 0 0 0 0 0 
0 0 0 0 0 0 0 0 0 
0 0 0 0 0 0 0 0 0 
0 0 0 0 0 0 0 0 0 
0 0 0 0 0 0 0 0 0 
0 0 0 0 0 0 0 0 0 
0 0 0 0 0 0 0 0 0 
0 0 0 0 0 0 0 0 0 
0 0 0 0 0 0 0 0 0 
0 0 0 0 0 0 0 0 0 
0 0 0 0 0 0 0 0 0 
0 0 0 0 0 0 0 0 0 
0 0 0 0 0 0 0 0 0 
0 0 0 0 0 0 0 0 0 
0 0 0 0 0 0 0 0 0 
0 0 0 0 0 0 0 0 0 
0 0 0 0 0 0 0 0 0 
0 0 0 0 0 0 0 0 0 
0 0 0 0 0 0 0 0 0 
0 0 0 0 0 0 0 0 0 
0 0 0 0 0 0 0 0 0 
0 0 0 0 0 0 0 0 0 
0 0 0 0 0 0 0 0 0 
0 0 0 0 0 0 0 0 0 
0 0 0 0 0 0 0 0 0 
0 0 0 0 0 0 0 0 0 
0 0 0 0 0 0 0 0 0 
0 0 0 0 0 0 0 0 0 
0 0 0 0 0 0 0 0 0 
0 0 0 0 0 0 0 0 0 
0 0 0 0 0 0 0 0 0 
0 0 0 0 0 0 0 0 0 
0 0 0 0 0 0 0 0 0 
0 0 0 0 0 0 0 0 0 
0 0 0 0 0 0 0 0 0 
0 0 0 0 0 0 0 0 0 
0 0 0 0 0 0 0 0 0 
0 0 0 0 0 0 0 0 0 
0 0 0 0 0 0 0 0 0 
0 0 0 0 0 0 0 0 0 
0 0 0 0 0 0 0 0 0 
0 0 0 0 0 0 0 0 0 
0 0 0 0 0 0 0 0 0 
0 0 0 0 0 0 0 0 0 
0 0 0 0 0 0 0 0 0 
0 0 0 0 0 0 0 0 0 
0 0 0 0 0 0 0 0 0 
0 0 0 0 0 0 0 0 0 
0 0 0 0 0 0 0 0 0 
0 0 0 0 0 0 0 0 0 
0 0 0 0 0 0 0 0 0 
0 0 0 0 0 0 0 0 0 
0 0 0 0 0 0 0 0 0 
0 0 0 0 0 0 0 0 0 
0 0 0 0 0 0 0 0 0 
0 0 0 0 0 0 0 0 0 
0 0 0 0 0 0 0 0 0 
0 0 0 0 0 0 0 0 0 
0 0 0 0 0 0 0 0 0 
0 0 0 0 0 0 0 0 0 
0 0 0 0 0 0 0 0 0 
0 0 0 0 0 0 0 0 0 
0 0 0 0 0 0 0 0 0 
0 0 0 0 0 0 0 0 0 
0 0 0 0 0 0 0 0 0 
0 0 0 0 0 0 0 0 0 
0 0 0 0 0 0 0 0 0 
0 0 0 0 0 0 0 0 0 
0 0 0 0 0 0 0 0 0 
0 0 0 0 0 0 0 0 0 
0 0 0 0 0 0 0 0 0 
0 0 0 0 0 0 0 0 0 
0 0 0 0 0 0 0 0 0 
0 0 0 0 0 0 0 0 0 
0 0 0 0 0 0 0 0 0 
0 0 0 0 0 0 0 0 0 
0 0 0 0 0 0 0 0 0 
0 0 0 0 0 0 0 0 0 
0 0 0 0 0 0 0 0 0 
0 0 0 0 0 0 0 0 0 
0 0 0 0 0 0 0 0 0 
0 0 0 0 0 0 0 0 0 
0 0 0 0 0 0 0 0 0 
0 0 0 0 0 0 0 0 0 
0 0 0 0 0 0 0 0 0 
0 0 0 0 0 0 0 0 0 
0 0 0 0 0 0 0 0 0 
0 0 0 0 0 0 0 0 0 
0 0 0 0 0 0 0 0 0 
0 0 0 0 0 0 0 0 0 
0 0 0 0 0 0 0 0 0 
0 0 0 0 0 0 0 0 0 
0 0 0 0 0 0 0 0 0 
0 0 0 0 0 0 0 0 0 
0 0 0 0 0 0 0 0 0 
0 0 0 0 0 0 0 0 0 
0 0 0 0 0 0 0 0 0 
0 0 0 0 0 0 0 0 0 
0 0 0 0 0 0 0 0 0 
0 0 0 0 0 0 0 0 0 
0 0 0 0 0 0 0 0 0 
0 0 0 0 0 0 0 0 0 
0 0 0 0 0 0 0 0 0 
0 0 0 0 0 0 0 0 0 
0 0 0 0 0 0 0 0 0 
0 0 0 0 0 0 0 0 0 
0 0 0 0 0 0 0 0 0 
0 0 0 0 0 0 0 0 0 
0 0 0 0 0 0 0 0 0 
0 0 0 0 0 0 0 0 0 
0 0 0 0 0 0 0 0 0 
0 0 0 0 0 0 0 0 0 
0 0 0 0 0 0 0 0 0 
0 0 0 0 0 0 0 0 0 
0 0 0 0 0 0 0 0 0 
0 0 0 0 0 0 0 0 0 
0 0 0 0 0 0 0 0 0 
0 0 0 0 0 0 0 0 0 
0 0 0 0 0 0 0 0 0 
0 0 0 0 0 0 0 0 0 
0 0 0 0 0 0 0 0 0 
0 0 0 0 0 0 0 0 0 
0 0 0 0 0 0 0 0 0 
0 0 0 0 0 0 0 0 0 
0 0 0 0 0 0 0 0 0 
0 0 0 0 0 0 0 0 0 
0 0 0 0 0 0 0 0 0 
0 0 0 0 0 0 0 0 0 
0 0 0 0 0 0 0 0 0 
0 0 0 0 0 0 0 0 0 
0 0 0 0 0 0 0 0 0 
0 0 0 0 0 0 0 0 0 
0 0 0 0 0 0 0 0 0 
0 0 0 0 0 0 0 0 0 
0 0 0 0 0 0 0 0 0 
0 0 0 0 0 0 0 0 0 
0 0 0 0 0 0 0 0 0 
0 0 0 0 0 0 0 0 0 
0 0 0 0 0 0 0 0 0 
0 0 0 0 0 0 0 0 0 
0 0 0 0 0 0 0 0 0 
0 0 0 0 0 0 0 0 0 
0 0 0 0 0 0 0 0 0 
0 0 0 0 0 0 0 0 0 
0 0 0 0 0 0 0 0 0 
0 0 0 0 0 0 0 0 0 
0 0 0 0 0 0 0 0 0 
0 0 0 0 0 0 0 0 0 
0 0 0 0 0 0 0 0 0 
0 0 0 0 0 0 0 0 0 
0 0 0 0 0 0 0 0 0 
0 0 0 0 0 0 0 0 0 
0 0 0 0 0 0 0 0 0 
0 0 0 0 0 0 0 0 0 
0 0 0 0 0 0 0 0 0 
0 0 0 0 0 0 0 0 0 
0 0 0 0 0 0 0 0 0 
0 0 0 0 0 0 0 0 0 
0 0 0 0 0 0 0 0 0 
0 0 0 0 0 0 0 0 0 
0 0 0 0 0 0 0 0 0 
0 0 0 0 0 0 0 0 0 
0 0 0 0 0 0 0 0 0 
0 0 0 0 0 0 0 0 0 
0 0 0 0 0 0 0 0 0 
0 0 0 0 0 0 0 0 0 
0 0 0 0 0 0 0 0 0 
0 0 0 0 0 0 0 0 0 
0 0 0 0 0 0 0 0 0 
0 0 0 0 0 0 0 0 0 
0 0 0 0 0 0 0 0 0 
0 0 0 0 0 0 0 0 0 
0 0 0 0 0 0 0 0 0 
0 0 0 0 0 0 0 0 0 
0 0 0 0 0 0 0 0 0 
0 0 0 0 0 0 0 0 0 
0 0 0 0 0 0 0 0 0 
0 0 0 0 0 0 0 0 0 
0 0 0 0 0 0 0 0 0 
0 0 0 0 0 0 0 0 0 
0 0 0 0 0 0 0 0 0 
0 0 0 0 0 0 0 0 0 
0 0 0 0 0 0 0 0 0 
0 0 0 0 0 0 0 0 0 
0 0 0 0 0 0 0 0 0 
0 0 0 0 0 0 0 0 0 
0 0 0 0 0 0 0 0 0 
0 0 0 0 0 0 0 0 0 
0 0 0 0 0 0 0 0 0 
0 0 0 0 0 0 0 0 0 
0 0 0 0 0 0 0 0 0 
0 0 0 0 0 0 0 0 0 
0 0 0 0 0 0 0 0 0 
0 0 0 0 0 0 0 0 0 
0 0 0 0 0 0 0 0 0 
0 0 0 0 0 0 0 0 0 
0 0 0 0 0 0 0 0 0 
0 0 0 0 0 0 0 0 0 
0 0 0 0 0 0 0 0 0 
0 0 0 0 0 0 0 0 0 
0 0 0 0 0 0 0 0 0 
0 0 0 0 0 0 0 0 0 
0 0 0 0 0 0 0 0 0 
0 0 0 0 0 0 0 0 0 
0 0 0 0 0 0 0 0 0 
0 0 0 0 0 0 0 0 0 
0 0 0 0 0 0 0 0 0 
0 0 0 0 0 0 0 0 0 
0 0 0 0 0 0 0 0 0 
0 0 0 0 0 0 0 0 0 
0 0 0 0 0 0 0 0 0 
0 0 0 0 0 0 0 0 0 
0 0 0 0 0 0 0 0 0 
0 0 0 0 0 0 0 0 0 
0 0 0 0 0 0 0 0 0 
0 0 0 0 0 0 0 0 0 
0 0 0 0 0 0 0 0 0 
0 0 0 0 0 0 0 0 0 
0 0 0 0 0 0 0 0 0 
0 0 0 0 0 0 0 0 0 
0 0 0 0 0 0 0 0 0 
0 0 0 0 0 0 0 0 0 
0 0 0 0 0 0 0 0 0 
0 0 0 0 0 0 0 0 0 
0 0 0 0 0 0 0 0 0 
0 0 0 0 0 0 0 0 0 
0 0 0 0 0 0 0 0 0 
0 0 0 0 0 0 0 0 0 
0 0 0 0 0 0 0 0 0 
0 0 0 0 0 0 0 0 0 
0 0 0 0 0 0 0 0 0 
0 0 0 0 0 0 0 0 0 
0 0 0 0 0 0 0 0 0 
0 0 0 0 0 0 0 0 0 
0 0 0 0 0 0 0 0 0 
0 0 0 0 0 0 0 0 0 
0 0 0 0 0 0 0 0 0 
0 0 0 0 0 0 0 0 0 
0 0 0 0 0 0 0 0 0 
0 0 0 0 0 0 0 0 0 
0 0 0 0 0 0 0 0 0 
0 0 0 0 0 0 0 0 0 
0 0 0 0 0 0 0 0 0 
0 0 0 0 0 0 0 0 0 
0 0 0 0 0 0 0 0 0 
0 0 0 0 0 0 0 0 0 
0 0 0 0 0 0 0 0 0 
0 0 0 0 0 0 0 0 0 
0 0 0 0 0 0 0 0 0 
0 0 0 0 0 0 0 0 0 
0 0 0 0 0 0 0 0 0 
0 0 0 0 0 0 0 0 0 
0 0 0 0 0 0 0 0 0 
0 0 0 0 0 0 0 0 0 
0 0 0 0 0 0 0 0 0 
0 0 0 0 0 0 0 0 0 
0 0 0 0 0 0 0 0 0 
0 0 0 0 0 0 0 0 0 
0 0 0 0 0 0 0 0 0 
0 0 0 0 0 0 0 0 0 
0 0 0 0 0 0 0 0 0 
0 0 0 0 0 0 0 0 0 
0 0 0 0 0 0 0 0 0 
0 0 0 0 0 0 0 0 0 
0 0 0 0 0 0 0 0 0 
0 0 0 0 0 0 0 0 0 
0 0 0 0 0 0 0 0 0 
0 0 0 0 0 0 0 0 0 
0 0 0 0 0 0 0 0 0 
0 0 0 0 0 0 0 0 0 
0 0 0 0 0 0 0 0 0 
0 0 0 0 0 0 0 0 0 
0 0 0 0 0 0 0 0 0 
0 0 0 0 0 0 0 0 0 
0 0 0 0 0 0 0 0 0 
0 0 0 0 0 0 0 0 0 
0 0 0 0 0 0 0 0 0 
0 0 0 0 0 0 0 0 0 
0 0 0 0 0 0 0 0 0 
0 0 0 0 0 0 0 0 0 
0 0 0 0 0 0 0 0 0 
0 0 0 0 0 0 0 0 0 
0 0 0 0 0 0 0 0 0 
0 0 0 0 0 0 0 0 0 
0 0 0 0 0 0 0 0 0 
0 0 0 0 0 0 0 0 0 
0 0 0 0 0 0 0 0 0 
0 0 0 0 0 0 0 0 0 
0 0 0 0 0 0 0 0 0 
0 0 0 0 0 0 0 0 0 
0 0 0 0 0 0 0 0 0 
0 0 0 0 0 0 0 0 0 
0 0 0 0 0 0 0 0 0 
0 0 0 0 0 0 0 0 0 
0 0 0 0 0 0 0 0 0 
0 0 0 0 0 0 0 0 0 
0 0 0 0 0 0 0 0 0 
0 0 0 0 0 0 0 0 0 
0 0 0 0 0 0 0 0 0 
0 0 0 0 0 0 0 0 0 
0 0 0 0 0 0 0 0 0 
0 0 0 0 0 0 0 0 0 
0 0 0 0 0 0 0 0 0 
0 0 0 0 0 0 0 0 0 
0 0 0 0 0 0 0 0 0 
0 0 0 0 0 0 0 0 0 
0 0 0 0 0 0 0 0 0 
0 0 0 0 0 0 0 0 0 
0 0 0 0 0 0 0 0 0 
0 0 0 0 0 0 0 0 0 
0 0 0 0 0 0 0 0 0 
0 0 0 0 0 0 0 0 0 
0 0 0 0 0 0 0 0 0 
0 0 0 0 0 0 0 0 0 
0 0 0 0 0 0 0 0 0 
0 0 0 0 0 0 0 0 0 
0 0 0 0 0 0 0 0 0 
0 0 0 0 0 0 0 0 0 
0 0 0 0 0 0 0 0 0 
0 0 0 0 0 0 0 0 0 
0 0 0 0 0 0 0 0 0 
0 0 0 0 0 0 0 0 0 
0 0 0 0 0 0 0 0 0 
0 0 0 0 0 0 0 0 0 
0 0 0 0 0 0 0 0 0 
0 0 0 0 0 0 0 0 0 
0 0 0 0 0 0 0 0 0 
0 0 0 0 0 0 0 0 0 
0 0 0 0 0 0 0 0 0 
0 0 0 0 0 0 0 0 0 
0 0 0 0 0 0 0 0 0 
0 0 0 0 0 0 0 0 0 
0 0 0 0 0 0 0 0 0 
0 0 0 0 0 0 0 0 0 
0 0 0 0 0 0 0 0 0 
0 0 0 0 0 0 0 0 0 
0 0 0 0 0 0 0 0 0 
0 0 0 0 0 0 0 0 0 
0 0 0 0 0 0 0 0 0 
0 0 0 0 0 0 0 0 0 
0 0 0 0 0 0 0 0 0 
0 0 0 0 0 0 0 0 0 
0 0 0 0 0 0 0 0 0 
0 0 0 0 0 0 0 0 0 
0 0 0 0 0 0 0 0 0 
0 0 0 0 0 0 0 0 0 
0 0 0 0 0 0 0 0 0 
0 0 0 0 0 0 0 0 0 
0 0 0 0 0 0 0 0 0 
0 0 0 0 0 0 0 0 0 
0 0 0 0 0 0 0 0 0 
0 0 0 0 0 0 0 0 0 
0 0 0 0 0 0 0 0 0 
0 0 0 0 0 0 0 0 0 
0 0 0 0 0 0 0 0 0 
0 0 0 0 0 0 0 0 0 
0 0 0 0 0 0 0 0 0 
0 0 0 0 0 0 0 0 0 
0 0 0 0 0 0 0 0 0 
0 0 0 0 0 0 0 0 0 
0 0 0 0 0 0 0 0 0 
0 0 0 0 0 0 0 0 0 
0 0 0 0 0 0 0 0 0 
0 0 0 0 0 0 0 0 0 
0 0 0 0 0 0 0 0 0 
0 0 0 0 0 0 0 0 0 
0 0 0 0 0 0 0 0 0 
0 0 0 0 0 0 0 0 0 
0 0 0 0 0 0 0 0 0 
0 0 0 0 0 0 0 0 0 
0 0 0 0 0 0 0 0 0 
0 0 0 0 0 0 0 0 0 
0 0 0 0 0 0 0 0 0 
0 0 0 0 0 0 0 0 0 
0 0 0 0 0 0 0 0 0 
0 0 0 0 0 0 0 0 0 
0 0 0 0 0 0 0 0 0 
0 0 0 0 0 0 0 0 0 
0 0 0 0 0 0 0 0 0 
0 0 0 0 0 0 0 0 0 
0 0 0 0 0 0 0 0 0 
0 0 0 0 0 0 0 0 0 
0 0 0 0 0 0 0 0 0 
0 0 0 0 0 0 0 0 0 
0 0 0 0 0 0 0 0 0 
0 0 0 0 0 0 0 0 0 
0 0 0 0 0 0 0 0 0 
0 0 0 0 0 0 0 0 0 
0 0 0 0 0 0 0 0 0 
0 0 0 0 0 0 0 0 0 
0 0 0 0 0 0 0 0 0 
0 0 0 0 0 0 0 0 0 
0 0 0 0 0 0 0 0 0 
0 0 0 0 0 0 0 0 0 
0 0 0 0 0 0 0 0 0 
0 0 0 0 0 0 0 0 0 
0 0 0 0 0 0 0 0 0 
0 0 0 0 0 0 0 0 0 
0 0 0 0 0 0 0 0 0 
0 0 0 0 0 0 0 0 0 
0 0 0 0 0 0 0 0 0 
0 0 0 0 0 0 0 0 0 
0 0 0 0 0 0 0 0 0 
0 0 0 0 0 0 0 0 0 
0 0 0 0 0 0 0 0 0 
0 0 0 0 0 0 0 0 0 
0 0 0 0 0 0 0 0 0 
0 0 0 0 0 0 0 0 0 
0 0 0 0 0 0 0 0 0 
0 0 0 0 0 0 0 0 
NORMALS Normals float
-0.0990148 -0.0990148 -0.990148 0.0990148 -0.0990148 -0.990148 -0.109764 0.109764 -0.987878 
0.110432 -0 -0.993884 -0 0.110432 -0.993884 -0 -0.110432 -0.993884 
-0.0705346 -0.705346 -0.705346 0.0705346 -0.705346 -0.705346 -0.0741249 -0.741249 -0.667124 
-0 -0.707107 -0.707107 -0 -0.0995037 -0.995037 0.0990148 0.0990148 -0.990148 
-0.990148 -0.0990148 -0.0990148 0.705346 -0.0705346 -0.705346 0.707107 -0 -0.707107 
-0.995037 0.0995037 -0 0.743294 -0 -0.668965 -0.707107 0.707107 -0 
-0.0995037 0.995037 -0 -0.532152 0.598671 0.598671 0.668965 -0 -0.743294 
-0.668965 0.743294 -0 0.704934 0.0783261 -0.704934 -0 0.743294 -0.668965 
-0.598671 -0.532152 0.598671 0.667124 0.0741249 -0.741249 -0 0.668965 -0.743294 
-0 -1 -0 -0.668965 -0.743294 -0 0.993884 -0.110432 -0 
-0.0741249 -0.741249 -0.667124 -0 -0.707107 -0.707107 -0.667124 -0.741249 -0.0741249 
-0.0741249 -0.667124 -0.741249 0.0705346 -0.705346 -0.705346 -0 -0.743294 0.668965 
-0.995037 -0.0995037 -0 0.990148 0.0990148 -0.0990148 0.57735 0.57735 -0.57735 
-0.638877 0.511101 0.574989 -0.778499 0.0778499 -0.622799 0.59655 0.536895 -0.59655 
-0.0990148 0.990148 0.0990148 -0.556022 0.617802 0.556022 -0.668965 -0 -0.743294 
-0.0778499 -0.622799 0.778499 0.57735 0.57735 -0.57735 -0.598671 0.598671 0.532152 
0.993884 -0 -0.110432 -0 0.993884 -0.110432 -0.622543 -0.553372 0.553372 
0.667124 0.0741249 -0.741249 -0.598671 -0.598671 0.532152 0.536895 0.59655 -0.59655 