# vtk DataFile Version 5.1
vtk output
ASCII
DATASET POLYDATA
POINTS 7459 float
100 46 42.1 99 47 42.1 101 47 42.1 
99 49 42.1 100 49 42.1 99 50 42.1 
100 50 42.1 100 51 42.1 100 52 42.1 
100 45.1 43 99.1 46 43 100.9 46 43 
99 46.1 43 100 46.9 43 101 46.1 43 
101 46 43.1 98.1 47 43 99.9 47 43 
100.1 47 43 101.9 47 43 99 47.9 43 
101 47.9 43 100 47 43.1 99 48.1 43 
100 48.1 43 98 48 43.1 99 48 43.1 
101 48 43.1 98.1 49 43 100.9 49 43 
98 49 43.1 101 49 43.1 98.1 50 43 
100.9 50 43 99 50.9 43 101 50 43.1 
99.1 51 43 100.9 51 43 99 51 43.1 
101 51 43.1 99.1 52 43 100.9 52 43 
100 52.9 43 98 52 43.1 99 52 43.1 
100 53 43.1 100 45.1 44 101 45.1 44 
102 45 44.1 99.1 46 44 101.9 46 44 
99 46.1 44 102 46 44.1 98.1 47 44 
101.9 47 44 98 47.1 44 100 47.9 44 
99 47 44.9 101 47 44.9 102 47 44.1 
97.1 48 44 99.9 48 44 100.1 48 44 
101.9 48 44 100 48.1 44 102 48 44.1 
97.1 49 44 101.9 49 44 98 49.9 44 
99 49 44.9 102 49 44.1 98.1 50 44 
101.9 50 44 102 50 44.1 98.1 51 44 
101.9 51 44 98 51.1 44 101 51.9 44 
97.1 52 44 100.9 52 44 98 52.9 44 
99 52.9 44 99.1 53 44 100.9 53 44 
100 53.9 44 98 53 44.1 99 53 44.1 
102 44.1 45 101.1 45 45 102.9 45 45 
100 45.1 45 101 45.1 45 103 45 45.1 
99.1 46 45 102.9 46 45 101 46.9 45 
99.1 47 45 100.9 47 45 101.1 47 45 
102.9 47 45 98 47.1 45 99 47.1 45 
100 47.9 45 101 47.1 45 101 47 45.1 
102 47 45.9 97.1 48 45 99.9 48 45 
100.1 48 45 102.9 48 45 99 48.9 45 
100 48.1 45 98 48 45.9 100 48 45.1 
97.1 49 45 98.9 49 45 99.1 49 45 
102.9 49 45 98 49.9 45 99 49.1 45 
99 49 45.1 98.1 50 45 102.9 50 45 
102 50.9 45 98 50 45.1 98.1 51 45 
101.9 51 45 98 51.1 45 101 51.9 45 
98 51 45.1 102 51 45.1 97.1 52 45 
100.9 52 45 97.1 53 45 100.9 53 45 
98 53.9 45 99 53.9 45 100 53.9 45 
100 53 45.9 102 44.1 46 103 44.1 46 
101.1 45 46 103.9 45 46 100 45.1 46 
101 45.1 46 103 45.9 46 99.1 46 46 
102.9 46 46 102 46.9 46 100 46 46.9 
103 46 46.1 99.1 47 46 101.9 47 46 
99 47.1 46 102 47.1 46 99 47 46.1 
102 47 46.1 103 47 46.1 98.1 48 46 
102.9 48 46 98 48.1 46 102 48 46.9 
97.1 49 46 102.9 49 46 103 49 46.1 
97.1 50 46 102.9 50 46 97.1 51 46 
102.9 51 46 101 51.9 46 102 51.9 46 
102 51 46.9 97.1 52 46 100.9 52 46 
100 52.9 46 98 52 46.9 97.1 53 46 
99.9 53 46 98 53.9 46 99 53.9 46 
98 53 46.9 102 44.1 47 103 44.1 47 
101.1 45 47 103.9 45 47 101 45.1 47 
103 45 47.9 104 45 47.1 100.1 46 47 
103.9 46 47 99 46.1 47 100 46.1 47 
101 46 47.9 104 46 47.1 98.1 47 47 
103.9 47 47 102 47.9 47 103 47.9 47 
99 47 47.9 103 47 47.9 104 47 47.1 
98.1 48 47 101.9 48 47 98 48.1 47 
102 48.1 47 103 48.1 47 99 48 47.9 
102 48 47.1 104 48 47.1 97.1 49 47 
103.9 49 47 103 49.9 47 98 49 47.9 
103 49 47.9 97.1 50 47 102.9 50 47 
102 50.9 47 98 50 47.9 97.1 51 47 
101.9 51 47 98 51.9 47 101 51.9 47 
98 51 47.9 102 51 47.1 98.1 52 47 
100.9 52 47 100 52.9 47 101 52 47.1 
98.1 53 47 99.9 53 47 99 53.9 47 
98 54 47.1 99 54 47.1 102 44.1 48 
104 44.1 48 104 44 48.1 101.1 45 48 
102.9 45 48 103.1 45 48 104.9 45 48 
103 45.1 48 102 45 48.9 103 45 48.1 
101.1 46 48 104.9 46 48 100 46.1 48 
101 46.1 48 103 46.9 48 99.1 47 48 
102.9 47 48 103.1 47 48 104.9 47 48 
103 47 48.1 99.1 48 48 102.9 48 48 
103.1 48 48 104.9 48 48 99 48.1 48 
104 48.9 48 103 48 48.1 98.1 49 48 
102.9 49 48 100 49 48.9 103 49 48.1 
98.1 50 48 102.9 50 48 99 50 48.9 
100 50 48.9 98.1 51 48 102.9 51 48 
102 51.9 48 98.1 52 48 101.9 52 48 
100 52.9 48 101 52.9 48 98.1 53 48 
99.9 53 48 98 53.1 48 100 53 48.1 
97.1 54 48 99.9 54 48 98 54.9 48 
99 54.9 48 98 54 48.9 99 54 48.9 
104 43.1 49 103.1 44 49 104.9 44 49 
103 44.1 49 105 44 49.1 106 44 49.1 
102.1 45 49 104.9 45 49 102 45.1 49 
102 45 49.1 101.1 46 49 104.9 46 49 
100 46.1 49 101 46.1 49 99.1 47 49 
104.9 47 49 100 47 49.9 99.1 48 49 
104.9 48 49 99 48.1 49 100 48.9 49 
104 48.9 49 105 48 49.1 98.1 49 49 
99.9 49 49 100.1 49 49 103.9 49 49 
99 49.9 49 103 49.9 49 100 49 49.1 
103 49 49.9 105 49 49.1 100.1 50 49 
102.9 50 49 99 50.1 49 100 50.1 49 
98.1 51 49 102.9 51 49 102 51.9 49 
99 51 49.9 100 51 49.9 104 51 49.1 
98.1 52 49 101.9 52 49 101 52.9 49 
99 52 49.9 100 52 49.9 102 52 49.1 
98.1 53 49 100.9 53 49 99 53.9 49 
100 53.9 49 99 54 49.1 104 43.1 50 
105 43.1 50 106 43.1 50 103.1 44 50 
106.9 44 50 102 44.1 50 103 44.1 50 
105 44.9 50 106 44.9 50 103 44 50.1 
101.1 45 50 104.9 45 50 102 45 50.9 
105 45 50.1 101.1 46 50 104.9 46 50 
101 46.1 50 101 46 50.1 105 46 50.1 
106 46 50.1 100.1 47 50 104.9 47 50 
100 47.1 50 105 47.1 50 101 47 50.9 
105 47 50.1 99.1 48 50 105.9 48 50 
99 48.1 50 103 48.9 50 104 48.9 50 
104 48 50.9 105 48 50.9 98.1 49 50 
102.9 49 50 104.1 49 50 105.9 49 50 
99 49.9 50 100 49.9 50 105 49.9 50 
99 49 50.9 103 49 50.1 104 49 50.1 
100.1 50 50 102.9 50 50 104 50.1 50 
100 50 50.1 101 50 50.9 103 50 50.1 
104 50 50.1 105 50 50.1 100.1 51 50 
102.9 51 50 103.1 51 50 104.9 51 50 
104 51.9 50 100 51 50.1 101 51 50.9 
103 51 50.1 100.1 52 50 102.9 52 50 
99 52.1 50 100 52.1 50 101 52.9 50 
102 52.9 50 100 52 50.1 101 52 50.9 
102 52 50.9 103 52 50.1 98.1 53 50 
100.9 53 50 100 53.9 50 99 53 50.9 
100 53 50.9 98.1 54 50 99.9 54 50 
99 54.9 50 99 54 50.9 103 43.1 51 
104 43.1 51 105 43.1 51 106 43.1 51 
102.1 44 51 106.9 44 51 106 44.9 51 
103 44 51.9 106 44 51.9 102.1 45 51 
105.9 45 51 101 45.1 51 102 45.1 51 
106 45.1 51 100.1 46 51 106.9 46 51 
101 46.9 51 106 46.9 51 106 46 51.9 
101.1 47 51 105.9 47 51 100 47.1 51 
101 47.1 51 104 47.9 51 105 47.9 51 
101 47 51.1 99.1 48 51 103.9 48 51 
104 48.1 51 105 48.1 51 100 48 51.9 
102 48 51.9 103 48 51.9 104 48 51.1 
99.1 49 51 105.9 49 51 101 49.9 51 
100 49 51.9 106 49 51.1 99.1 50 51 
100.9 50 51 101.1 50 51 105.9 50 51 
105 50.9 51 101 50 51.1 99.1 51 51 
100.9 51 51 101.1 51 51 104.9 51 51 
102 51.9 51 104 51.9 51 101 51 51.1 
105 51 51.1 99.1 52 51 100.9 52 51 
102.1 52 51 103.9 52 51 100 52.9 51 
103 52.9 51 100 52 51.9 103 52 51.9 
104 52 51.1 104 43.1 52 105 43.1 52 
103.1 44 52 105.9 44 52 103 44.1 52 
103 44 52.1 102.1 45 52 105.9 45 52 
101 45.1 52 102 45.1 52 102 45 52.1 
100.1 46 52 105.9 46 52 101 46 52.9 
106 46 52.1 100.1 47 52 105.9 47 52 
102 47.9 52 103 47.9 52 105 47.9 52 
106 47 52.1 100.1 48 52 101.9 48 52 
103.1 48 52 104.9 48 52 102 48.1 52 
103 48.1 52 105 48.1 52 106 48.1 52 
102 48 52.1 103 48 52.1 106 48 52.1 
100.1 49 52 106.9 49 52 100 49.1 52 
106 49.9 52 99.1 50 52 105.9 50 52 
100 50 52.9 106 50 52.1 99.1 51 52 
105.9 51 52 100 51.9 52 101 51.9 52 
102 51.9 52 103 51.9 52 105 51.9 52 
100 51 52.9 101 51 52.9 103.1 52 52 
104.9 52 52 104 52.9 52 101 52 52.1 
102 52 52.1 103 43.1 53 104 43.1 53 
105 43.1 53 102.1 44 53 105.9 44 53 
102 44.1 53 105 44 53.9 101.1 45 53 
105.9 45 53 106 45.1 53 106 45 53.1 
101.1 46 53 106.9 46 53 101 46.1 53 
101 46 53.1 106 46 53.9 100.1 47 53 
106.9 47 53 105 47.9 53 100.1 48 53 
104.9 48 53 105.1 48 53 106.9 48 53 
105 48.1 53 105 48 53.1 106 48 53.9 
100.1 49 53 106.9 49 53 105 49 53.9 
100.1 50 53 106.9 50 53 101 50.9 53 
106 50.9 53 106 50 53.9 101.1 51 53 
105.9 51 53 101 51.1 53 103 51.9 53 
105 51.9 53 106 51 53.1 100.1 52 53 
102.9 52 53 103.1 52 53 104.9 52 53 
101 52.9 53 102 52.9 53 104 52.9 53 
103 52 53.1 105 52 53.1 102 53 53.1 
101 54 53.1 102 54 53.1 103 54 53.1 
103 43.1 54 104 43.1 54 102 43 54.1 
102.1 44 54 104.9 44 54 102 44.1 54 
105 44.1 54 106 44.1 54 102 44 54.1 
105 44 54.1 101.1 45 54 106.9 45 54 
101 45.1 54 106 45.9 54 101 45 54.1 
106 45 54.9 100.1 46 54 105.9 46 54 
106 46.1 54 100.1 47 54 106.9 47 54 
106 47.9 54 105 47 54.9 100.1 48 54 
105.9 48 54 105 48.9 54 106 48.1 54 
100.1 49 54 104.9 49 54 105.1 49 54 
106.9 49 54 105 49.1 54 106 49.9 54 
105 49 54.1 106 49 54.9 100.1 50 54 
105.9 50 54 101 50.9 54 106 50.1 54 
101 50 54.9 105 50 54.9 106 50 54.1 
101.1 51 54 106.9 51 54 101 51.1 54 
106 51.9 54 106 51 54.9 100.1 52 54 
105.9 52 54 101 52.9 54 103 52.9 54 
104 52.9 54 105 52.9 54 101 52 54.9 
101.1 53 54 102.9 53 54 101 53.1 54 
103 53.1 54 101 53 54.1 103 53 54.1 
104 53 54.1 100.1 54 54 103.9 54 54 
101 54.9 54 102 54.9 54 103 54.9 54 
101 54 54.9 103 54 54.9 102 42.1 55 
102 42 55.1 101.1 43 55 102.9 43 55 
103 43.1 55 104 43.1 55 105 43.1 55 
101 43 55.1 103 43 55.1 104 43 55.1 
101.1 44 55 105.9 44 55 101 44.1 55 
101 44 55.1 105 44 55.9 100.1 45 55 
105.9 45 55 100 45 55.1 104 45 55.9 
100.1 46 55 105.9 46 55 105 46.9 55 
106 46.1 55 100 46 55.1 105 46 55.9 
100.1 47 55 104.9 47 55 105.1 47 55 
106.9 47 55 105 47.1 55 106 47.9 55 
106 47 55.9 100.1 48 55 105.9 48 55 
101 48 55.9 105 48 55.9 100.1 49 55 
105.9 49 55 101 49.9 55 105 49.9 55 
106 49.1 55 101 49 55.9 101.1 50 55 
104.9 50 55 105.1 50 55 106.9 50 55 
105 50.1 55 106 50.9 55 105 50 55.1 
101.1 51 55 105.9 51 55 105 51 55.9 
106 51 55.1 101.1 52 55 105.9 52 55 
101 52.1 55 105 52.9 55 103 52 55.9 
100.1 53 55 104.9 53 55 101 53.9 55 
103 53.9 55 104 53.9 55 101 53 55.9 
103 53 55.9 101.1 54 55 102.9 54 55 
102 54.9 55 103 54 55.1 101 55 55.1 
102 55 55.1 102 41.1 56 101.1 42 56 
102.9 42 56 101 42.1 56 103 42.1 56 
104 42.1 56 102 42 56.9 100.1 43 56 
104.9 43 56 101 43 56.9 102 43 56.9 
104 43 56.9 100.1 44 56 104.9 44 56 
100 44.1 56 104 44.9 56 105 44.1 56 
100 44 56.1 104 44 56.9 99.1 45 56 
103.9 45 56 104.1 45 56 105.9 45 56 
104 45.1 56 105 45.9 56 105 45 56.9 
99.1 46 56 104.9 46 56 100 46.9 56 
104 46 56.9 100.1 47 56 104.9 47 56 
101 47.9 56 100 47 56.1 103 47 56.9 
104 47 56.9 101.1 48 56 104.9 48 56 
105 48.1 56 100 48 56.1 102 48 56.9 
103 48 56.9 104 48 56.9 105 48 56.1 
101.1 49 56 105.9 49 56 106 49.1 56 
102 49 56.9 106 49 56.1 101.1 50 56 
106.9 50 56 105 50.9 56 105 50 56.9 
101.1 51 56 104.9 51 56 105.1 51 56 
106.9 51 56 103 51.9 56 105 51.1 56 
106 51.9 56 101 51 56.1 105 51 56.1 
101.1 52 56 102.9 52 56 103.1 52 56 
105.9 52 56 105 52.9 56 101 52 56.1 
103 52 56.1 105 52 56.9 101.1 53 56 
102.9 53 56 103.1 53 56 104.9 53 56 
103 53.1 56 104 53.9 56 101 53 56.1 
103 53 56.1 105 53 56.1 101.1 54 56 
103.9 54 56 101 54.1 56 103 54.9 56 
101 54 56.1 104 54 56.1 100.1 55 56 
102.9 55 56 101 55.9 56 102 55.9 56 
103 55 56.1 103 42.1 57 101 42 57.1 
[...]
POINT_DATA 7459
SCALARS scalars char
LOOKUP_TABLE default
0 0 0 0 0 0 0 0 0 
0 0 0 0 0 0 0 0 0 
0 0 0 0 0 0 0 0 0 
0 0 0 0 0 0 0 0 0 
0 0 0 0 0 0 0 0 0 
0 0 0 0 0 0 0 0 0 
0 0 0 0 0 0 0 0 0 
0 0 0 0 0 0 0 0 0 
0 0 0 0 0 0 0 0 0 
0 0 0 0 0 0 0 0 0 
0 0 0 0 0 0 0 0 0 
0 0 0 0 0 0 0 0 0 
0 0 0 0 0 0 0 0 0 
0 0 0 0 0 0 0 0 0 
0 0 0 0 0 0 0 0 0 
0 0 0 0 0 0 0 0 0 
0 0 0 0 0 0 0 0 0 
0 0 0 0 0 0 0 0 0 
0 0 0 0 0 0 0 0 0 
0 0 0 0 0 0 0 0 0 
0 0 0 0 0 0 0 0 0 
0 0 0 0 0 0 0 0 0 
0 0 0 0 0 0 0 0 0 
0 0 0 0 0 0 0 0 0 
0 0 0 0 0 0 0 0 0 
0 0 0 0 0 0 0 0 0 
0 0 0 0 0 0 0 0 0 
0 0 0 0 0 0 0 0 0 
0 0 0 0 0 0 0 0 0 
0 0 0 0 0 0 0 0 0 
0 0 0 0 0 0 0 0 0 
0 0 0 0 0 0 0 0 0 
0 0 0 0 0 0 0 0 0 
0 0 0 0 0 0 0 0 0 
0 0 0 0 0 0 0 0 0 
0 0 0 0 0 0 0 0 0 
0 0 0 0 0 0 0 0 0 
0 0 0 0 0 0 0 0 0 
0 0 0 0 0 0 0 0 0 
0 0 0 0 0 0 0 0 0 
0 0 0 0 0 0 0 0 0 
0 0 0 0 0 0 0 0 0 
0 0 0 0 0 0 0 0 0 
0 0 0 0 0 0 0 0 0 
0 0 0 0 0 0 0 0 0 
0 0 0 0 0 0 0 0 0 
0 0 0 0 0 0 0 0 0 
0 0 0 0 0 0 0 0 0 
0 0 0 0 0 0 0 0 0 
0 0 0 0 0 0 0 0 0 
0 0 0 0 0 0 0 0 0 
0 0 0 0 0 0 0 0 0 
0 0 0 0 0 0 0 0 0 
0 0 0 0 0 0 0 0 0 
0 0 0 0 0 0 0 0 0 
0 0 0 0 0 0 0 0 0 
0 0 0 0 0 0 0 0 0 
0 0 0 0 0 0 0 0 0 
0 0 0 0 0 0 0 0 0 
0 0 0 0 0 0 0 0 0 
0 0 0 0 0 0 0 0 0 
0 0 0 0 0 0 0 0 0 
0 0 0 0 0 0 0 0 0 
0 0 0 0 0 0 0 0 0 
0 0 0 0 0 0 0 0 0 
0 0 0 0 0 0 0 0 0 
0 0 0 0 0 0 0 0 0 
0 0 0 0 0 0 0 0 0 
0 0 0 0 0 0 0 0 0 
0 0 0 0 0 0 0 0 0 
0 0 0 0 0 0 0 0 0 
0 0 0 0 0 0 0 0 0 
0 0 0 0 0 0 0 0 0 
0 0 0 0 0 0 0 0 0 
0 0 0 0 0 0 0 0 0 
0 0 0 0 0 0 0 0 0 
0 0 0 0 0 0 0 0 0 
0 0 0 0 0 0 0 0 0 
0 0 0 0 0 0 0 0 0 
0 0 0 0 0 0 0 0 0 
0 0 0 0 0 0 0 0 0 
0 0 0 0 0 0 0 0 0 
0 0 0 0 0 0 0 0 0 
0 0 0 0 0 0 0 0 0 
0 0 0 0 0 0 0 0 0 
0 0 0 0 0 0 0 0 0 
0 0 0 0 0 0 0 0 0 
0 0 0 0 0 0 0 0 0 
0 0 0 0 0 0 0 0 0 
0 0 0 0 0 0 0 0 0 
0 0 0 0 0 0 0 0 0 
0 0 0 0 0 0 0 0 0 
0 0 0 0 0 0 0 0 0 
0 0 0 0 0 0 0 0 0 
0 0 0 0 0 0 0 0 0 
0 0 0 0 0 0 0 0 0 
0 0 0 0 0 0 0 0 0 
0 0 0 0 0 0 0 0 0 
0 0 0 0 0 0 0 0 0 
0 0 0 0 0 0 0 0 0 
0 0 0 0 0 0 0 0 0 
0 0 0 0 0 0 0 0 0 
0 0 0 0 0 0 0 0 0 
0 0 0 0 0 0 0 0 0 
0 0 0 0 0 0 0 0 0 
0 0 0 0 0 0 0 0 0 
0 0 0 0 0 0 0 0 0 
0 0 0 0 0 0 0 0 0 
0 0 0 0 0 0 0 0 0 
0 0 0 0 0 0 0 0 0 
0 0 0 0 0 0 0 0 0 
0 0 0 0 0 0 0 0 0 
0 0 0 0 0 0 0 0 0 
0 0 0 0 0 0 0 0 0 
0 0 0 0 0 0 0 0 0 
0 0 0 0 0 0 0 0 0 
0 0 0 0 0 0 0 0 0 
0 0 0 0 0 0 0 0 0 
0 0 0 0 0 0 0 0 0 
0 0 0 0 0 0 0 0 0 
0 0 0 0 0 0 0 0 0 
0 0 0 0 0 0 0 0 0 
0 0 0 0 0 0 0 0 0 
0 0 0 0 0 0 0 0 0 
0 0 0 0 0 0 0 0 0 
0 0 0 0 0 0 0 0 0 
0 0 0 0 0 0 0 0 0 
0 0 0 0 0 0 0 0 0 
0 0 0 0 0 0 0 0 0 
0 0 0 0 0 0 0 0 0 
0 0 0 0 0 0 0 0 0 
0 0 0 0 0 0 0 0 0 
0 0 0 0 0 0 0 0 0 
0 0 0 0 0 0 0 0 0 
0 0 0 0 0 0 0 0 0 
0 0 0 0 0 0 0 0 0 
0 0 0 0 0 0 0 0 0 
0 0 0 0 0 0 0 0 0 
0 0 0 0 0 0 0 0 0 
0 0 0 0 0 0 0 0 0 
0 0 0 0 0 0 0 0 0 
0 0 0 0 0 0 0 0 0 
0 0 0 0 0 0 0 0 0 
0 0 0 0 0 0 0 0 0 
0 0 0 0 0 0 0 0 0 
0 0 0 0 0 0 0 0 0 
0 0 0 0 0 0 0 0 0 
0 0 0 0 0 0 0 0 0 
0 0 0 0 0 0 0 0 0 
0 0 0 0 0 0 0 0 0 
0 0 0 0 0 0 0 0 0 
0 0 0 0 0 0 0 0 0 
0 0 0 0 0 0 0 0 0 
0 0 0 0 0 0 0 0 0 
0 0 0 0 0 0 0 0 0 
0 0 0 0 0 0 0 0 0 
0 0 0 0 0 0 0 0 0 
0 0 0 0 0 0 0 0 0 
0 0 0 0 0 0 0 0 0 
0 0 0 0 0 0 0 0 0 
0 0 0 0 0 0 0 0 0 
0 0 0 0 0 0 0 0 0 
0 0 0 0 0 0 0 0 0 
0 0 0 0 0 0 0 0 0 
0 0 0 0 0 0 0 0 0 
0 0 0 0 0 0 0 0 0 
0 0 0 0 0 0 0 0 0 
0 0 0 0 0 0 0 0 0 
0 0 0 0 0 0 0 0 0 
0 0 0 0 0 0 0 0 0 
0 0 0 0 0 0 0 0 0 
0 0 0 0 0 0 0 0 0 
0 0 0 0 0 0 0 0 0 
0 0 0 0 0 0 0 0 0 
0 0 0 0 0 0 0 0 0 
0 0 0 0 0 0 0 0 0 
0 0 0 0 0 0 0 0 0 
0 0 0 0 0 0 0 0 0 
0 0 0 0 0 0 0 0 0 
0 0 0 0 0 0 0 0 0 
0 0 0 0 0 0 0 0 0 
0 0 0 0 0 0 0 0 0 
0 0 0 0 0 0 0 0 0 
0 0 0 0 0 0 0 0 0 
0 0 0 0 0 0 0 0 0 
0 0 0 0 0 0 0 0 0 
0 0 0 0 0 0 0 0 0 
0 0 0 0 0 0 0 0 0 
0 0 0 0 0 0 0 0 0 
0 0 0 0 0 0 0 0 0 
0 0 0 0 0 0 0 0 0 
0 0 0 0 0 0 0 0 0 
0 0 0 0 0 0 0 0 0 
0 0 0 0 0 0 0 0 0 
0 0 0 0 0 0 0 0 0 
0 0 0 0 0 0 0 0 0 
0 0 0 0 0 0 0 0 0 
0 0 0 0 0 0 0 0 0 
0 0 0 0 0 0 0 0 0 
0 0 0 0 0 0 0 0 0 
0 0 0 0 0 0 0 0 0 
0 0 0 0 0 0 0 0 0 
0 0 0 0 0 0 0 0 0 
0 0 0 0 0 0 0 0 0 
0 0 0 0 0 0 0 0 0 
0 0 0 0 0 0 0 0 0 
0 0 0 0 0 0 0 0 0 
0 0 0 0 0 0 0 0 0 
0 0 0 0 0 0 0 0 0 
0 0 0 0 0 0 0 0 0 
0 0 0 0 0 0 0 0 0 
0 0 0 0 0 0 0 0 0 
0 0 0 0 0 0 0 0 0 
0 0 0 0 0 0 0 0 0 
0 0 0 0 0 0 0 0 0 
0 0 0 0 0 0 0 0 0 
0 0 0 0 0 0 0 0 0 
0 0 0 0 0 0 0 0 0 
0 0 0 0 0 0 0 0 0 
0 0 0 0 0 0 0 0 0 
0 0 0 0 0 0 0 0 0 
0 0 0 0 0 0 0 0 0 
0 0 0 0 0 0 0 0 0 
0 0 0 0 0 0 0 0 0 
0 0 0 0 0 0 0 0 0 
0 0 0 0 0 0 0 0 0 
0 0 0 0 0 0 0 0 0 
0 0 0 0 0 0 0 0 0 
0 0 0 0 0 0 0 0 0 
0 0 0 0 0 0 0 0 0 
0 0 0 0 0 0 0 0 0 
0 0 0 0 0 0 0 0 0 
0 0 0 0 0 0 0 0 0 
0 0 0 0 0 0 0 0 0 
0 0 0 0 0 0 0 0 0 
0 0 0 0 0 0 0 0 0 
0 0 0 0 0 0 0 0 0 
0 0 0 0 0 0 0 0 0 
0 0 0 0 0 0 0 0 0 
0 0 0 0 0 0 0 0 0 
0 0 0 0 0 0 0 0 0 
0 0 0 0 0 0 0 0 0 
0 0 0 0 0 0 0 0 0 
0 0 0 0 0 0 0 0 0 
0 0 0 0 0 0 0 0 0 
0 0 0 0 0 0 0 0 0 
0 0 0 0 0 0 0 0 0 
0 0 0 0 0 0 0 0 0 
0 0 0 0 0 0 0 0 0 
0 0 0 0 0 0 0 0 0 
0 0 0 0 0 0 0 0 0 
0 0 0 0 0 0 0 0 0 
0 0 0 0 0 0 0 0 0 
0 0 0 0 0 0 0 0 0 
0 0 0 0 0 0 0 0 0 
0 0 0 0 0 0 0 0 0 
0 0 0 0 0 0 0 0 0 
0 0 0 0 0 0 0 0 0 
0 0 0 0 0 0 0 0 0 
0 0 0 0 0 0 0 0 0 
0 0 0 0 0 0 0 0 0 
0 0 0 0 0 0 0 0 0 
0 0 0 0 0 0 0 0 0 
0 0 0 0 0 0 0 0 0 
0 0 0 0 0 0 0 0 0 
0 0 0 0 0 0 0 0 0 
0 0 0 0 0 0 0 0 0 
0 0 0 0 0 0 0 0 0 
0 0 0 0 0 0 0 0 0 
0 0 0 0 0 0 0 0 0 
0 0 0 0 0 0 0 0 0 
0 0 0 0 0 0 0 0 0 
0 0 0 0 0 0 0 0 0 
0 0 0 0 0 0 0 0 0 
0 0 0 0 0 0 0 0 0 
0 0 0 0 0 0 0 0 0 
0 0 0 0 0 0 0 0 0 
0 0 0 0 0 0 0 0 0 
0 0 0 0 0 0 0 0 0 
0 0 0 0 0 0 0 0 0 
0 0 0 0 0 0 0 0 0 
0 0 0 0 0 0 0 0 0 
0 0 0 0 0 0 0 0 0 
0 0 0 0 0 0 0 0 0 
0 0 0 0 0 0 0 0 0 
0 0 0 0 0 0 0 0 0 
0 0 0 0 0 0 0 0 0 
0 0 0 0 0 0 0 0 0 
0 0 0 0 0 0 0 0 0 
0 0 0 0 0 0 0 0 0 
0 0 0 0 0 0 0 0 0 
0 0 0 0 0 0 0 0 0 
0 0 0 0 0 0 0 0 0 
0 0 0 0 0 0 0 0 0 
0 0 0 0 0 0 0 0 0 
0 0 0 0 0 0 0 0 0 
0 0 0 0 0 0 0 0 0 
0 0 0 0 0 0 0 0 0 
0 0 0 0 0 0 0 0 0 
0 0 0 0 0 0 0 0 0 
0 0 0 0 0 0 0 0 0 
0 0 0 0 0 0 0 0 0 
0 0 0 0 0 0 0 0 0 
0 0 0 0 0 0 0 0 0 
0 0 0 0 0 0 0 0 0 
0 0 0 0 0 0 0 0 0 
0 0 0 0 0 0 0 0 0 
0 0 0 0 0 0 0 0 0 
0 0 0 0 0 0 0 0 0 
0 0 0 0 0 0 0 0 0 
0 0 0 0 0 0 0 0 0 
0 0 0 0 0 0 0 0 0 
0 0 0 0 0 0 0 0 0 
0 0 0 0 0 0 0 0 0 
0 0 0 0 0 0 0 0 0 
0 0 0 0 0 0 0 0 0 
0 0 0 0 0 0 0 0 0 
0 0 0 0 0 0 0 0 0 
0 0 0 0 0 0 0 0 0 
0 0 0 0 0 0 0 0 0 
0 0 0 0 0 0 0 0 0 
0 0 0 0 0 0 0 0 0 
0 0 0 0 0 0 0 0 0 
0 0 0 0 0 0 0 0 0 
0 0 0 0 0 0 0 0 0 
0 0 0 0 0 0 0 0 0 
0 0 0 0 0 0 0 0 0 
0 0 0 0 0 0 0 0 0 
0 0 0 0 0 0 0 0 0 
0 0 0 0 0 0 0 0 0 
0 0 0 0 0 0 0 0 0 
0 0 0 0 0 0 0 0 0 
0 0 0 0 0 0 0 0 0 
0 0 0 0 0 0 0 0 0 
0 0 0 0 0 0 0 0 0 
0 0 0 0 0 0 0 0 0 
0 0 0 0 0 0 0 0 0 
0 0 0 0 0 0 0 0 0 
0 0 0 0 0 0 0 0 0 
0 0 0 0 0 0 0 0 0 
0 0 0 0 0 0 0 0 0 
0 0 0 0 0 0 0 0 0 
0 0 0 0 0 0 0 0 0 
0 0 0 0 0 0 0 0 0 
0 0 0 0 0 0 0 0 0 
0 0 0 0 0 0 0 0 0 
0 0 0 0 0 0 0 0 0 
0 0 0 0 0 0 0 0 0 
0 0 0 0 0 0 0 0 0 
0 0 0 0 0 0 0 0 0 
0 0 0 0 0 0 0 0 0 
0 0 0 0 0 0 0 0 0 
0 0 0 0 0 0 0 0 0 
0 0 0 0 0 0 0 0 0 
0 0 0 0 0 0 0 0 0 
0 0 0 0 0 0 0 0 0 
0 0 0 0 0 0 0 0 0 
0 0 0 0 0 0 0 0 0 
0 0 0 0 0 0 0 0 0 
0 0 0 0 0 0 0 0 0 
0 0 0 0 0 0 0 0 0 
0 0 0 0 0 0 0 0 0 
0 0 0 0 0 0 0 0 0 
0 0 0 0 0 0 0 0 0 
0 0 0 0 0 0 0 0 0 
0 0 0 0 0 0 0 0 0 
0 0 0 0 0 0 0 0 0 
0 0 0 0 0 0 0 0 0 
0 0 0 0 0 0 0 0 0 
0 0 0 0 0 0 0 0 0 
0 0 0 0 0 0 0 0 0 
0 0 0 0 0 0 0 0 0 
0 0 0 0 0 0 0 0 0 
0 0 0 0 0 0 0 0 0 
0 0 0 0 0 0 0 0 0 
0 0 0 0 0 0 0 0 0 
0 0 0 0 0 0 0 0 0 
0 0 0 0 0 0 0 0 0 
0 0 0 0 0 0 0 0 0 
0 0 0 0 0 0 0 0 0 
0 0 0 0 0 0 0 0 0 
0 0 0 0 0 0 0 0 0 
0 0 0 0 0 0 0 0 0 
0 0 0 0 0 0 0 0 0 
0 0 0 0 0 0 0 0 0 
0 0 0 0 0 0 0 0 0 
0 0 0 0 0 0 0 0 0 
0 0 0 0 0 0 0 0 0 
0 0 0 0 0 0 0 0 0 
0 0 0 0 0 0 0 0 0 
0 0 0 0 0 0 0 0 0 
0 0 0 0 0 0 0 0 0 
0 0 0 0 0 0 0 0 0 
0 0 0 0 0 0 0 0 0 
0 0 0 0 0 0 0 0 0 
0 0 0 0 0 0 0 0 0 
0 0 0 0 0 0 0 0 0 
0 0 0 0 0 0 0 0 0 
0 0 0 0 0 0 0 0 0 
0 0 0 0 0 0 0 0 0 
0 0 0 0 0 0 0 0 0 
0 0 0 0 0 0 0 0 0 
0 0 0 0 0 0 0 0 0 
0 0 0 0 0 0 0 0 0 
0 0 0 0 0 0 0 0 0 
0 0 0 0 0 0 0 0 0 
0 0 0 0 0 0 0 0 0 
0 0 0 0 0 0 0 0 0 
0 0 0 0 0 0 0 0 0 
0 0 0 0 0 0 0 0 0 
0 0 0 0 0 0 0 0 0 
0 0 0 0 0 0 0 0 0 
0 0 0 0 0 0 0 0 0 
0 0 0 0 0 0 0 0 0 
0 0 0 0 0 0 0 0 0 
0 0 0 0 0 0 0 0 0 
0 0 0 0 0 0 0 0 0 
0 0 0 0 0 0 0 0 0 
0 0 0 0 0 0 0 0 0 
0 0 0 0 0 0 0 0 0 
0 0 0 0 0 0 0 0 0 
0 0 0 0 0 0 0 0 0 
0 0 0 0 0 0 0 0 0 
0 0 0 0 0 0 0 0 0 
0 0 0 0 0 0 0 0 0 
0 0 0 0 0 0 0 0 0 
0 0 0 0 0 0 0 0 0 
0 0 0 0 0 0 0 0 0 
0 0 0 0 0 0 0 0 0 
0 0 0 0 0 0 0 0 0 
0 0 0 0 0 0 0 0 0 
0 0 0 0 0 0 0 0 0 
0 0 0 0 0 0 0 0 0 
0 0 0 0 0 0 0 0 0 
0 0 0 0 0 0 0 0 0 
0 0 0 0 0 0 0 0 0 
0 0 0 0 0 0 0 0 0 
0 0 0 0 0 0 0 0 0 
0 0 0 0 0 0 0 0 0 
0 0 0 0 0 0 0 0 0 
0 0 0 0 0 0 0 0 0 
0 0 0 0 0 0 0 0 0 
0 0 0 0 0 0 0 0 0 
0 0 0 0 0 0 0 0 0 
0 0 0 0 0 0 0 0 0 
0 0 0 0 0 0 0 0 0 
0 0 0 0 0 0 0 0 0 
0 0 0 0 0 0 0 0 0 
0 0 0 0 0 0 0 0 0 
0 0 0 0 0 0 0 0 0 
0 0 0 0 0 0 0 0 0 
0 0 0 0 0 0 0 0 0 
0 0 0 0 0 0 0 0 0 
0 0 0 0 0 0 0 0 0 
0 0 0 0 0 0 0 0 0 
0 0 0 0 0 0 0 0 0 
0 0 0 0 0 0 0 0 0 
0 0 0 0 0 0 0 0 0 
0 0 0 0 0 0 0 0 0 
0 0 0 0 0 0 0 0 0 
0 0 0 0 0 0 0 0 0 
0 0 0 0 0 0 0 0 0 
0 0 0 0 0 0 0 0 0 
0 0 0 0 0 0 0 0 0 
0 0 0 0 0 0 0 0 0 
0 0 0 0 0 0 0 0 0 
0 0 0 0 0 0 0 0 0 
0 0 0 0 0 0 0 0 0 
0 0 0 0 0 0 0 0 0 
0 0 0 0 0 0 0 0 0 
0 0 0 0 0 0 0 0 0 
0 0 0 0 0 0 0 0 0 
0 0 0 0 0 0 0 0 0 
0 0 0 0 0 0 0 0 0 
0 0 0 0 0 0 0 0 0 
0 0 0 0 0 0 0 0 0 
0 0 0 0 0 0 0 0 0 
0 0 0 0 0 0 0 0 0 
0 0 0 0 0 0 0 0 0 
0 0 0 0 0 0 0 0 0 
0 0 0 0 0 0 0 0 0 
0 0 0 0 0 0 0 0 0 
0 0 0 0 0 0 0 0 0 
0 0 0 0 0 0 0 0 0 
0 0 0 0 0 0 0 0 0 
0 0 0 0 0 0 0 0 0 
0 0 0 0 0 0 0 0 0 
0 0 0 0 0 0 0 0 0 
0 0 0 0 0 0 0 0 0 
0 0 0 0 0 0 0 0 0 
0 0 0 0 0 0 0 0 0 
0 0 0 0 0 0 0 0 0 
0 0 0 0 0 0 0 0 0 
0 0 0 0 0 0 0 0 0 
0 0 0 0 0 0 0 0 0 
0 0 0 0 0 0 0 0 0 
0 0 0 0 0 0 0 0 0 
0 0 0 0 0 0 0 0 0 
0 0 0 0 0 0 0 0 0 
0 0 0 0 0 0 0 0 0 
0 0 0 0 0 0 0 0 0 
0 0 0 0 0 0 0 0 0 
0 0 0 0 0 0 0 0 0 
0 0 0 0 0 0 0 0 0 
0 0 0 0 0 0 0 0 0 
0 0 0 0 0 0 0 0 0 
0 0 0 0 0 0 0 0 0 
0 0 0 0 0 0 0 0 0 
0 0 0 0 0 0 0 0 0 
0 0 0 0 0 0 0 0 0 
0 0 0 0 0 0 0 0 0 
0 0 0 0 0 0 0 0 0 
0 0 0 0 0 0 0 0 0 
0 0 0 0 0 0 0 0 0 
0 0 0 0 0 0 0 0 0 
0 0 0 0 0 0 0 0 0 
0 0 0 0 0 0 0 0 0 
0 0 0 0 0 0 0 0 0 
0 0 0 0 0 0 0 0 0 
0 0 0 0 0 0 0 0 0 
0 0 0 0 0 0 0 0 0 
0 0 0 0 0 0 0 0 0 
0 0 0 0 0 0 0 0 0 
0 0 0 0 0 0 0 0 0 
0 0 0 0 0 0 0 0 0 
0 0 0 0 0 0 0 0 0 
0 0 0 0 0 0 0 0 0 
0 0 0 0 0 0 0 0 0 
0 0 0 0 0 0 0 0 0 
0 0 0 0 0 0 0 0 0 
0 0 0 0 0 0 0 0 0 
0 0 0 0 0 0 0 0 0 
0 0 0 0 0 0 0 0 0 
0 0 0 0 0 0 0 0 0 
0 0 0 0 0 0 0 0 0 
0 0 0 0 0 0 0 0 0 
0 0 0 0 0 0 0 0 0 
0 0 0 0 0 0 0 0 0 
0 0 0 0 0 0 0 0 0 
0 0 0 0 0 0 0 0 0 
0 0 0 0 0 0 0 0 0 
0 0 0 0 0 0 0 0 0 
0 0 0 0 0 0 0 0 0 
0 0 0 0 0 0 0 0 0 
0 0 0 0 0 0 0 0 0 
0 0 0 0 0 0 0 0 0 
0 0 0 0 0 0 0 0 0 
0 0 0 0 0 0 0 0 0 
0 0 0 0 0 0 0 0 0 
0 0 0 0 0 0 0 0 0 
0 0 0 0 0 0 0 0 0 
0 0 0 0 0 0 0 0 0 
0 0 0 0 0 0 0 0 0 
0 0 0 0 0 0 0 0 0 
0 0 0 0 0 0 0 0 0 
0 0 0 0 0 0 0 0 0 
0 0 0 0 0 0 0 0 0 
0 0 0 0 0 0 0 0 0 
0 0 0 0 0 0 0 0 0 
0 0 0 0 0 0 0 0 0 
0 0 0 0 0 0 0 0 0 
0 0 0 0 0 0 0 0 0 
0 0 0 0 0 0 0 0 0 
0 0 0 0 0 0 0 0 0 
0 0 0 0 0 0 0 0 0 
0 0 0 0 0 0 0 0 0 
0 0 0 0 0 0 0 0 0 
0 0 0 0 0 0 0 0 0 
0 0 0 0 0 0 0 0 0 
0 0 0 0 0 0 0 0 0 
0 0 0 0 0 0 0 0 0 
0 0 0 0 0 0 0 0 0 
0 0 0 0 0 0 0 0 0 
0 0 0 0 0 0 0 0 0 
0 0 0 0 0 0 0 0 0 
0 0 0 0 0 0 0 0 0 
0 0 0 0 0 0 0 0 0 
0 0 0 0 0 0 0 0 0 
0 0 0 0 0 0 0 0 0 
0 0 0 0 0 0 0 0 0 
0 0 0 0 0 0 0 0 0 
0 0 0 0 0 0 0 0 0 
0 0 0 0 0 0 0 0 0 
0 0 0 0 0 0 0 0 0 
0 0 0 0 0 0 0 0 0 
0 0 0 0 0 0 0 0 0 
0 0 0 0 0 0 0 0 0 
0 0 0 0 0 0 0 0 0 
0 0 0 0 0 0 0 0 0 
0 0 0 0 0 0 0 0 0 
0 0 0 0 0 0 0 0 0 
0 0 0 0 0 0 0 0 0 
0 0 0 0 0 0 0 0 0 
0 0 0 0 0 0 0 0 0 
0 0 0 0 0 0 0 0 0 
0 0 0 0 0 0 0 0 0 
0 0 0 0 0 0 0 0 0 
0 0 0 0 0 0 0 0 0 
0 0 0 0 0 0 0 0 0 
0 0 0 0 0 0 0 0 0 
0 0 0 0 0 0 0 0 0 
0 0 0 0 0 0 0 0 0 
0 0 0 0 0 0 0 0 0 
0 0 0 0 0 0 0 0 0 
0 0 0 0 0 0 0 0 0 
0 0 0 0 0 0 0 0 0 
0 0 0 0 0 0 0 0 0 
0 0 0 0 0 0 0 0 0 
0 0 0 0 0 0 0 0 0 
0 0 0 0 0 0 0 0 0 
0 0 0 0 0 0 0 0 0 
0 0 0 0 0 0 0 0 0 
0 0 0 0 0 0 0 0 0 
0 0 0 0 0 0 0 0 0 
0 0 0 0 0 0 0 0 0 
0 0 0 0 0 0 0 0 0 
0 0 0 0 0 0 0 0 0 
0 0 0 0 0 0 0 0 0 
0 0 0 0 0 0 0 0 0 
0 0 0 0 0 0 0 0 0 
0 0 0 0 0 0 0 0 0 
0 0 0 0 0 0 0 0 0 
0 0 0 0 0 0 0 0 0 
0 0 0 0 0 0 0 0 0 
0 0 0 0 0 0 0 0 0 
0 0 0 0 0 0 0 0 0 
0 0 0 0 0 0 0 0 0 
0 0 0 0 0 0 0 0 0 
0 0 0 0 0 0 0 0 0 
0 0 0 0 0 0 0 0 0 
0 0 0 0 0 0 0 0 0 
0 0 0 0 0 0 0 0 0 
0 0 0 0 0 0 0 0 0 
0 0 0 0 0 0 0 0 0 
0 0 0 0 0 0 0 0 0 
0 0 0 0 0 0 0 0 0 
0 0 0 0 0 0 0 0 0 
0 0 0 0 0 0 0 0 0 
0 0 0 0 0 0 0 0 0 
0 0 0 0 0 0 0 0 0 
0 0 0 0 0 0 0 0 0 
0 0 0 0 0 0 0 0 0 
0 0 0 0 0 0 0 0 0 
0 0 0 0 0 0 0 0 0 
0 0 0 0 0 0 0 0 0 
0 0 0 0 0 0 0 0 0 
0 0 0 0 0 0 0 0 0 
0 0 0 0 0 0 0 0 0 
0 0 0 0 0 0 0 0 0 
0 0 0 0 0 0 0 0 0 
0 0 0 0 0 0 0 0 0 
0 0 0 0 0 0 0 0 0 
0 0 0 0 0 0 0 0 0 
0 0 0 0 0 0 0 0 0 
0 0 0 0 0 0 0 0 0 
0 0 0 0 0 0 0 0 0 
0 0 0 0 0 0 0 0 0 
0 0 0 0 0 0 0 0 0 
0 0 0 0 0 0 0 0 0 
0 0 0 0 0 0 0 0 0 
0 0 0 0 0 0 0 0 0 
0 0 0 0 0 0 0 0 0 
0 0 0 0 0 0 0 0 0 
0 0 0 0 0 0 0 0 0 
0 0 0 0 0 0 0 0 0 
0 0 0 0 0 0 0 0 0 
0 0 0 0 0 0 0 0 0 
0 0 0 0 0 0 0 0 0 
0 0 0 0 0 0 0 0 0 
0 0 0 0 0 0 0 0 0 
0 0 0 0 0 0 0 0 0 
0 0 0 0 0 0 0 0 0 
0 0 0 0 0 0 0 0 0 
0 0 0 0 0 0 0 0 0 
0 0 0 0 0 0 0 0 0 
0 0 0 0 0 0 0 0 0 
0 0 0 0 0 0 0 0 0 
0 0 0 0 0 0 0 0 0 
0 0 0 0 0 0 0 0 0 
0 0 0 0 0 0 0 0 0 
0 0 0 0 0 0 0 0 0 
0 0 0 0 0 0 0 0 0 
0 0 0 0 0 0 0 0 0 
0 0 0 0 0 0 0 0 0 
0 0 0 0 0 0 0 0 0 
0 0 0 0 0 0 0 0 0 
0 0 0 0 0 0 0 0 0 
0 0 0 0 0 0 0 0 0 
0 0 0 0 0 0 0 0 0 
0 0 0 0 0 0 0 0 0 
0 0 0 0 0 0 0 0 0 
0 0 0 0 0 0 0 0 0 
0 0 0 0 0 0 0 0 0 
0 0 0 0 0 0 0 0 0 
0 0 0 0 0 0 0 0 0 
0 0 0 0 0 0 0 0 0 
0 0 0 0 0 0 0 0 0 
0 0 0 0 0 0 0 0 0 
0 0 0 0 0 0 0 0 0 
0 0 0 0 0 0 0 0 0 
0 0 0 0 0 0 0 0 0 
0 0 0 0 0 0 0 0 0 
0 0 0 0 0 0 0 0 0 
0 0 0 0 0 0 0 0 0 
0 0 0 0 0 0 0 0 0 
0 0 0 0 0 0 0 0 0 
0 0 0 0 0 0 0 0 0 
0 0 0 0 0 0 0 0 0 
0 0 0 0 0 0 0 0 0 
0 0 0 0 0 0 0 0 0 
0 0 0 0 0 0 0 0 0 
0 0 0 0 0 0 0 0 0 
0 0 0 0 0 0 0 0 0 
0 0 0 0 0 0 0 0 0 
0 0 0 0 0 0 0 0 0 
0 0 0 0 0 0 0 0 0 
0 0 0 0 0 0 0 0 0 
0 0 0 0 0 0 0 0 0 
0 0 0 0 0 0 0 0 0 
0 0 0 0 0 0 0 0 0 
0 0 0 0 0 0 0 0 0 
0 0 0 0 0 0 0 0 0 
0 0 0 0 0 0 0 0 0 
0 0 0 0 0 0 0 0 0 
0 0 0 0 0 0 0 0 0 
0 0 0 0 0 0 0 0 0 
0 0 0 0 0 0 0 0 0 
0 0 0 0 0 0 0 0 0 
0 0 0 0 0 0 0 0 0 
0 0 0 0 0 0 0 0 0 
0 0 0 0 0 0 0 0 0 
0 0 0 0 0 0 0 0 0 
0 0 0 0 0 0 0 0 0 
0 0 0 0 0 0 0 0 0 
0 0 0 0 0 0 0 0 0 
0 0 0 0 0 0 0 0 0 
0 0 0 0 0 0 0 0 0 
0 0 0 0 0 0 0 0 0 
0 0 0 0 0 0 0 0 0 
0 0 0 0 0 0 0 0 0 
0 0 0 0 0 0 0 0 0 
0 0 0 0 0 0 0 0 0 
0 0 0 0 0 0 0 0 0 
0 0 0 0 0 0 0 0 0 
0 0 0 0 0 0 0 0 0 
0 0 0 0 0 0 0 0 0 
0 0 0 0 0 0 0 0 0 
0 0 0 0 0 0 0 0 0 
0 0 0 0 0 0 0 0 0 
0 0 0 0 0 0 0 0 0 
0 0 0 0 0 0 0 0 0 
0 0 0 0 0 0 0 0 0 
0 0 0 0 0 0 0 0 0 
0 0 0 0 0 0 0 0 0 
0 0 0 0 0 0 0 0 0 
0 0 0 0 0 0 0 0 0 
0 0 0 0 0 0 0 0 0 
0 0 0 0 0 0 0 0 0 
0 0 0 0 0 0 0 0 0 
0 0 0 0 0 0 0 0 0 
0 0 0 0 0 0 0 0 0 
0 0 0 0 0 0 0 0 0 
0 0 0 0 0 0 0 0 0 
0 0 0 0 0 0 0 0 0 
0 0 0 0 0 0 0 0 0 
0 0 0 0 0 0 0 0 0 
0 0 0 0 0 0 0 0 0 
0 0 0 0 0 0 0 0 0 
0 0 0 0 0 0 0 0 0 
0 0 0 0 0 0 0 0 0 
0 0 0 0 0 0 0 0 0 
0 0 0 0 0 0 0 0 0 
0 0 0 0 0 0 0 0 0 
0 0 0 0 0 0 0 0 0 
0 0 0 0 0 0 0 0 0 
0 0 0 0 0 0 0 0 0 
0 0 0 0 0 0 0 0 0 
0 0 0 0 0 0 0 0 0 
0 0 0 0 0 0 0 0 0 
0 0 0 0 0 0 0 0 0 
0 0 0 0 0 0 0 0 0 
0 0 0 0 0 0 0 0 0 
0 0 0 0 0 0 0 0 0 
0 0 0 0 0 0 0 0 0 
0 0 0 0 0 0 0 0 0 
0 0 0 0 0 0 0 0 0 
0 0 0 0 0 0 0 0 0 
0 0 0 0 0 0 0 0 0 
0 0 0 0 0 0 0 0 0 
0 0 0 0 0 0 0 0 0 
0 0 0 0 0 0 0 0 0 
0 0 0 0 0 0 0 0 0 
0 0 0 0 0 0 0 0 0 
0 0 0 0 0 0 0 0 0 
0 0 0 0 0 0 0 0 0 
0 0 0 0 0 0 0 0 0 
0 0 0 0 0 0 0 0 0 
0 0 0 0 0 0 0 0 0 
0 0 0 0 0 0 0 0 0 
0 0 0 0 0 0 0 0 0 
0 0 0 0 0 0 0 0 0 
0 0 0 0 0 0 0 0 0 
0 0 0 0 0 0 0 0 0 
0 0 0 0 0 0 0 0 0 
0 0 0 0 0 0 0 0 0 
0 0 0 0 0 0 0 0 0 
0 0 0 0 0 0 0 0 0 
0 0 0 0 0 0 0 0 0 
0 0 0 0 0 0 0 0 0 
0 0 0 0 0 0 0 0 0 
0 0 0 0 0 0 0 0 0 
0 0 0 0 0 0 0 0 0 
0 0 0 0 0 0 0 0 0 
0 0 0 0 0 0 0 0 0 
0 0 0 0 0 0 0 0 0 
0 0 0 0 0 0 0 0 0 
0 0 0 0 0 0 0 0 0 
0 0 0 0 0 0 0 0 0 
0 0 0 0 0 0 0 0 0 
0 0 0 0 0 0 0 0 0 
0 0 0 0 0 0 0 0 0 
0 0 0 0 0 0 0 0 0 
0 0 0 0 0 0 0 0 0 
0 0 0 0 0 0 0 0 0 
0 0 0 0 0 0 0 0 0 
0 0 0 0 0 0 0 0 0 
0 0 0 0 0 0 0 0 0 
0 0 0 0 0 0 0 0 0 
0 0 0 0 0 0 0 
NORMALS Normals float
-0 -0 -1 -0 -0 -1 -0 -0 -1 
-0.0990148 -0.0990148 -0.990148 0.0990148 -0.0990148 -0.990148 -0.0990148 0.0990148 -0.990148 
0.0995037 -0 -0.995037 -0 -0 -1 -0 0.0995037 -0.995037 
-0 -0.993884 -0.110432 -0.704934 -0.704934 -0.0783261 0.556022 -0.556022 -0.617802 
-0.704934 -0.704934 -0.0783261 -0 0.668965 -0.743294 0.556022 -0.556022 -0.617802 
0.57735 -0.57735 -0.57735 -0.993884 -0 -0.110432 -0 0.668965 -0.743294 
-0 0.668965 -0.743294 0.993884 -0 -0.110432 -0 -0 -1 
-0 0.668965 -0.743294 -0 0.707107 -0.707107 -0.0990148 -0.0990148 -0.990148 
0.0990148 -0.990148 -0.0990148 -0.0990148 -0.0990148 -0.990148 0.0995037 -0 -0.995037 
-0 0.668965 -0.743294 -0.705346 -0.0705346 -0.705346 0.705346 -0.0705346 -0.705346 
-0.705346 0.0705346 -0.705346 0.707107 -0 -0.707107 -0.990148 0.0990148 -0.0990148 
0.707107 -0 -0.707107 -0.57735 0.57735 -0.57735 0.707107 -0 -0.707107 
-0.556022 0.556022 -0.617802 0.668965 -0 -0.743294 -0.59655 0.536895 -0.59655 
0.705346 0.0705346 -0.705346 -0.667124 0.0741249 -0.741249 0.987878 0.109764 -0.109764 
-0 0.707107 -0.707107 -0.0995037 -0 -0.995037 -0.667124 0.0741249 -0.741249 
-0 0.707107 -0.707107 -0.0995037 -0.995037 -0 0.0990148 -0.990148 -0.0990148 
-0 -0.0995037 -0.995037 -0.707107 -0.707107 -0 0.705346 -0.0705346 -0.705346 
-0.705346 -0.705346 0.0705346 0.707107 -0 -0.707107 -0.705346 -0.705346 0.0705346 
0.780869 -0 -0.624695 -0.705346 -0.705346 -0.0705346 -0 0.707107 -0.707107 
-0.57735 -0.57735 0.57735 0.707107 -0 0.707107 0.707107 -0 -0.707107 
-0.990148 -0.0990148 -0.0990148 0.707107 -0 -0.707107 -0 -0 -1 
0.668965 -0 -0.743294 -0 -1 -0 0.707107 -0 -0.707107 
-0.990148 0.0990148 -0.0990148 0.707107 -0 -0.707107 -0.705346 0.705346 -0.0705346 
-0 -0 1 0.707107 -0 -0.707107 -0.743294 0.668965 -0 
0.707107 -0 -0.707107 0.705346 0.0705346 -0.705346 -0.741249 -0.667124 -0.0741249 
0.990148 0.0990148 -0.0990148 -0.741249 -0.667124 -0.0741249 0.705346 0.705346 -0.0705346 
-0.995037 -0 -0.0995037 0.743294 0.668965 -0 -0.0741249 0.667124 -0.741249 
-0.536895 0.59655 -0.59655 -0.536895 0.59655 -0.59655 0.987878 0.109764 -0.109764 
-0 0.995037 -0.0995037 -0.0705346 0.705346 -0.705346 -0.536895 0.59655 -0.59655 
-0 -0.995037 -0.0995037 -0.667124 -0.741249 -0.0741249 0.667124 -0.0741249 -0.741249 
-0.0995037 -0.995037 -0 -0.707107 -0.707107 -0 0.707107 -0 -0.707107 
-0.995037 -0.0995037 -0 0.995037 -0 -0.0995037 -0 -0 -0 
-0.598671 -0.532152 0.598671 -0 1 -0 -0 -0 -0 
1 -0 -0 -0.0990148 -0.990148 0.0990148 -0.532152 -0.598671 0.598671 
-0 0.110432 -0.993884 -0.707107 -0.707107 -0 0.707107 -0 -0.707107 
1 -0 -0 -0.990148 -0.0990148 0.0990148 0.110432 -0 -0.993884 
-0.109764 -0.109764 -0.987878 0.995037 -0 -0.0995037 1 -0 -0 
-0.109764 -0.109764 -0.987878 -0.57735 -0.57735 0.57735 -0 -0 -1 
-0.993884 0.110432 -0 -0 1 -0 -0.707107 -0.707107 -0 
0.995037 -0 -0.0995037 -0.556022 0.617802 -0.556022 -0.707107 -0.707107 -0 
-0 -0 -1 -0.638877 0.511101 -0.574989 0.990148 0.0990148 -0.0990148 
0.57735 0.57735 -0.57735 -0.59655 0.536895 -0.59655 -0.617802 -0.556022 -0.556022 
0.59655 0.59655 -0.536895 -0.59655 -0.59655 -0.536895 0.707107 0.707107 -0 
-0.59655 -0.536895 -0.59655 0.59655 0.59655 -0.536895 -0.995037 -0.0995037 -0 
0.743294 0.668965 -0 -0.990148 0.0990148 -0.0990148 0.990148 0.0990148 0.0990148 
-0.0990148 0.990148 -0.0990148 -0 0.995037 -0.0995037 0.0990148 0.990148 0.0990148 
0.57735 0.57735 0.57735 -0.0995037 -0.995037 -0 0.109764 -0.987878 -0.109764 
-0.707107 -0.707107 -0 0.995037 -0 -0.0995037 -0.0990148 -0.990148 0.0990148 
-0.668965 -0.743294 -0 0.59655 0.536895 -0.59655 -0.990148 -0.0990148 0.0990148 
0.59655 0.59655 -0.536895 0.995037 0.0995037 -0 -0.57735 -0.57735 0.57735 
0.59655 0.536895 -0.59655 -0.617802 -0.556022 -0.556022 0.995037 -0 -0.0995037 
-0.59655 -0.59655 -0.536895 0.990148 -0.0990148 0.0990148 -0.59655 -0.59655 -0.536895 
0.987878 0.109764 -0.109764 0.109764 0.109764 -0.987878 -0.59655 -0.59655 0.536895 
0.990148 -0.0990148 0.0990148 -0.59655 -0.59655 0.536895 0.990148 -0.0990148 0.0990148 
-0.995037 -0.0995037 -0 0.743294 -0 -0.668965 0.743294 -0 -0.668965 
-0.995037 -0 -0.0995037 1 -0 -0 -0.995037 -0 -0.0995037 