# vtk DataFile Version 5.1
vtk output
ASCII
DATASET POLYDATA
POINTS 6351 float
96 51 57.1 97 51 57.1 96 52 57.1 
97 52 57.1 96 53 57.1 97 53 57.1 
96 54 57.1 97 54 57.1 96 55 57.1 
96 56 57.1 96 57 57.1 96 50.1 58 
97 50.1 58 95.1 51 58 97.9 51 58 
96 51 58.9 95.1 52 58 97.9 52 58 
95.1 53 58 97.9 53 58 95.1 54 58 
97.9 54 58 97 54.9 58 95.1 55 58 
96.9 55 58 97 55 58.1 95.1 56 58 
96.9 56 58 95 56 58.1 95.1 57 58 
96.9 57 58 96 57.9 58 95 57 58.1 
97 50.1 59 96.1 51 59 97.9 51 59 
96 51.1 59 95 51 59.1 96 51 59.1 
98 51 59.1 95.1 52 59 97.9 52 59 
98 52 59.1 95.1 53 59 97.9 53 59 
95 53 59.1 98 53 59.1 95.1 54 59 
97.9 54 59 95 54 59.1 98 54 59.1 
95.1 55 59 97.9 55 59 95 55.1 59 
97 55.9 59 95 55 59.1 94.1 56 59 
96.9 56 59 94.1 57 59 96.9 57 59 
95 57.9 59 96 57.9 59 95 50.1 60 
96 50.1 60 97 50.1 60 98 50.1 60 
96 50 60.1 97 50 60.1 94.1 51 60 
98.9 51 60 95 51.9 60 95 51 60.9 
95.1 52 60 98.9 52 60 95 52.1 60 
95 52 60.1 94.1 53 60 98.9 53 60 
94.1 54 60 98.9 54 60 98 54.9 60 
94.1 55 60 97.9 55 60 97 55.9 60 
94.1 56 60 96.9 56 60 94.1 57 60 
96.9 57 60 95 57.9 60 96 57.9 60 
96 49.1 61 97 49.1 61 95.1 50 61 
97.9 50 61 98 50.1 61 96 50 61.9 
97 50 61.9 98 50 61.1 99 50 61.1 
95.1 51 61 98.9 51 61 95 51.1 61 
99 51 61.1 94.1 52 61 98.9 52 61 
94.1 53 61 98.9 53 61 94.1 54 61 
98.9 54 61 98 54.9 61 94 54 61.1 
94.1 55 61 97.9 55 61 97 55.9 61 
94 55 61.1 94.1 56 61 96.9 56 61 
97 56 61.1 94.1 57 61 96.9 57 61 
95 57.9 61 96 57.9 61 94 58 61.1 
95 58 61.1 98 49.1 62 99 49.1 62 
97.1 50 62 99.9 50 62 96 50.1 62 
97 50.1 62 98 50 62.9 95.1 51 62 
99.9 51 62 95 51.1 62 99 51.9 62 
96 51 62.9 94.1 52 62 98.9 52 62 
95 52 62.9 99 52 62.1 94.1 53 62 
98.9 53 62 94 53.1 62 99 53 62.1 
93.1 54 62 98.9 54 62 98 54.9 62 
94 54 62.9 95 54 62.9 99 54 62.1 
93.1 55 62 97.9 55 62 94 55.9 62 
94 55 62.9 98 55 62.1 94.1 56 62 
97.9 56 62 97 56.9 62 94.1 57 62 
96.9 57 62 94 57.1 62 96 57.9 62 
97 57 62.1 93.1 58 62 95.9 58 62 
94 58.9 62 95 58.9 62 96 58 62.1 
99 49.1 63 98.1 50 63 99.9 50 63 
97 50.1 63 98 50.1 63 96.1 51 63 
99.9 51 63 96 51.1 63 98 51 63.9 
95.1 52 63 99.9 52 63 95 52.1 63 
96 52 63.9 100 52 63.1 94.1 53 63 
99.9 53 63 95 53.9 63 95 53 63.9 
96 53 63.9 98 53 63.9 95.1 54 63 
99.9 54 63 95 54.1 63 99 54.9 63 
95 54 63.1 94.1 55 63 98.9 55 63 
98 55.9 63 99 55 63.1 94.1 56 63 
97.9 56 63 95 56 63.9 98 56 63.1 
94.1 57 63 97.9 57 63 94 57.1 63 
97 57.9 63 93.1 58 63 96.9 58 63 
94 58.9 63 95 58.9 63 96 58.9 63 
95 58 63.9 99 49.1 64 98.1 50 64 
99.9 50 64 97 50.1 64 96.1 51 64 
97.9 51 64 98.1 51 64 99.9 51 64 
98 51.1 64 100 51.1 64 97 51 64.9 
98 51 64.1 100 51 64.1 96.1 52 64 
100.9 52 64 98 52.9 64 100 52.9 64 
98 52 64.9 101 52 64.1 96.1 53 64 
97.9 53 64 98.1 53 64 99.9 53 64 
95 53.1 64 96 53.1 64 98 53.1 64 
97 53 64.9 98 53 64.1 100 53 64.1 
101 53 64.1 94.1 54 64 99.9 54 64 
95 54 64.9 96 54 64.9 100 54 64.1 
101 54 64.1 94.1 55 64 99.9 55 64 
95 55.9 64 99 55.9 64 95 55 64.9 
100 55 64.1 101 55 64.1 95.1 56 64 
98.9 56 64 95 56.1 64 98 56.9 64 
98 56 64.9 99 56 64.1 100 56 64.1 
94.1 57 64 97.9 57 64 94 57.1 64 
95 57.9 64 97 57.9 64 98 57 64.1 
99 57 64.1 93.1 58 64 94.9 58 64 
95.1 58 64 96.9 58 64 94 58.9 64 
96 58.9 64 94 58 64.9 95 58 64.1 
96 58 64.9 97 58 64.1 99 49.1 65 
98.1 50 65 99.9 50 65 98 50.1 65 
100 50.1 65 100 50 65.1 101 50 65.1 
97.1 51 65 100.9 51 65 97 51.1 65 
98 51.9 65 101 51.1 65 101 51 65.1 
96.1 52 65 97.9 52 65 98.1 52 65 
101.9 52 65 97 52.9 65 98 52.1 65 
98 52 65.1 97.1 53 65 101.9 53 65 
97 53.1 65 97 53 65.1 96.1 54 65 
101.9 54 65 96 54.1 65 96 54 65.1 
95.1 55 65 101.9 55 65 98 55.9 65 
101 55.9 65 95.1 56 65 97.9 56 65 
98.1 56 65 100.9 56 65 95 56.1 65 
98 56.1 65 100 56.9 65 98 56 65.1 
94.1 57 65 99.9 57 65 96 57.9 65 
98 57.9 65 99 57.9 65 95 57 65.9 
100 57 65.1 94.1 58 65 95.9 58 65 
96.1 58 65 97.9 58 65 95 58.9 65 
97 58.9 65 95 58 65.9 96 58 65.1 
98 58 65.1 96 59 65.1 97 59 65.1 
99 49.1 66 100 49.1 66 101 49.1 66 
100 49 66.1 98.1 50 66 101.9 50 66 
98 50.1 66 98 50 66.1 101 50 66.9 
97.1 51 66 101.9 51 66 97 51.1 66 
96.1 52 66 101.9 52 66 96 52 66.1 
96.1 53 66 101.9 53 66 96 53.1 66 
96 53 66.1 95.1 54 66 101.9 54 66 
95.1 55 66 101.9 55 66 101 55.9 66 
95.1 56 66 100.9 56 66 101 56 66.1 
95.1 57 66 100.9 57 66 99 57.9 66 
100 57.9 66 95.1 58 66 98.9 58 66 
98 58.9 66 96 58 66.9 99 58 66.1 
95.1 59 66 97.9 59 66 96 59.9 66 
97 59.9 66 98 59 66.1 97 60 66.1 
100 48.1 67 99.1 49 67 100.9 49 67 
98 49.1 67 99 49.1 67 99 49 67.1 
97.1 50 67 100.9 50 67 101 50.1 67 
97 50 67.1 97.1 51 67 101.9 51 67 
96 51.1 67 97 51.1 67 96 51 67.1 
97 51 67.1 101 51 67.9 95.1 52 67 
101.9 52 67 95 52 67.1 96 52 67.9 
95.1 53 67 101.9 53 67 95 53 67.1 
96 53 67.9 97 53 67.9 95.1 54 67 
101.9 54 67 95 54 67.1 101 54 67.9 
95.1 55 67 101.9 55 67 95.1 56 67 
101.9 56 67 101 56.9 67 96 56 67.9 
95.1 57 67 100.9 57 67 96 57.9 67 
100 57.9 67 101 57 67.1 96.1 58 67 
99.9 58 67 96 58.1 67 99 58.9 67 
95 58 67.1 96 58 67.1 97 58 67.9 
100 58 67.1 101 58 67.1 95.1 59 67 
98.9 59 67 96 59.9 67 98 59.9 67 
96 59 67.9 99 59 67.1 96.1 60 67 
97.9 60 67 97 60.9 67 98 60 67.1 
99 60 67.1 99 48.1 68 100 48.1 68 
98.1 49 68 100.9 49 68 97 49.1 68 
98 49.1 68 96.1 50 68 100.9 50 68 
96 50.1 68 95.1 51 68 100.9 51 68 
95 51.1 68 96 51.9 68 101 51.1 68 
94 51 68.1 96 51 68.9 94.1 52 68 
95.9 52 68 96.1 52 68 101.9 52 68 
97 52.9 68 100 52 68.9 101 52 68.9 
94.1 53 68 95.9 53 68 97.1 53 68 
101.9 53 68 96 53.1 68 97 53.1 68 
101 53.9 68 94 53 68.1 101 53 68.9 
94.1 54 68 100.9 54 68 95 54.9 68 
101 54.1 68 94 54 68.1 101 54 68.1 
95.1 55 68 101.9 55 68 96 55.9 68 
101 55 68.9 96.1 56 68 101.9 56 68 
96 56.1 68 95.1 57 68 101.9 57 68 
95 57.1 68 97 57.9 68 96 57 68.9 
94.1 58 68 96.9 58 68 97.1 58 68 
101.9 58 68 95 58.9 68 96 58.9 68 
97 58.1 68 100 58.9 68 101 58.9 68 
95 58 68.9 96 58 68.9 97 58 68.1 
101 58 68.9 96.1 59 68 99.9 59 68 
96 59 68.1 100 59 68.1 96.1 60 68 
99.9 60 68 97 60.9 68 98 60.9 68 
99 60.9 68 96 61 68.1 97 61 68.1 
98 61 68.1 99 48.1 69 100 48.1 69 
98.1 49 69 100.9 49 69 97 49.1 69 
98 49.1 69 99 49 69.9 100 49 69.9 
96.1 50 69 100.9 50 69 94 50.1 69 
93 50 69.1 94 50 69.1 96 50 69.1 
97 50 69.9 100 50 69.9 93.1 51 69 
94.9 51 69 96.1 51 69 100.9 51 69 
94 51.9 69 95 51.1 69 100 51.9 69 
93 51 69.1 95 51 69.1 96 51 69.1 
98 51 69.9 100 51 69.9 94.1 52 69 
95.9 52 69 96.1 52 69 99.9 52 69 
94 52.1 69 97 52.9 69 100 52.1 69 
93 52 69.1 94 52 69.1 95 52 69.9 
96 52 69.1 97 52 69.9 98 52 69.9 
93.1 53 69 95.9 53 69 97.1 53 69 
100.9 53 69 96 53.1 69 97 53.1 69 
101 53.1 69 93 53 69.1 95 53 69.9 
97 53 69.1 100 53 69.9 93.1 54 69 
101.9 54 69 94 54.9 69 95 54.9 69 
101 54.9 69 95 54 69.9 96 54 69.9 
97 54 69.9 100 54 69.9 101 54 69.9 
95.1 55 69 100.9 55 69 96 55.9 69 
101 55.1 69 93 55 69.1 94 55 69.1 
96 55 69.9 101 55 69.1 96.1 56 69 
101.9 56 69 97 56 69.9 101 56 69.9 
96.1 57 69 101.9 57 69 101 57.9 69 
97 57 69.9 96.1 58 69 100.9 58 69 
96 58.1 69 95.1 59 69 100.9 59 69 
96 59.9 69 100 59.9 69 96 59 69.9 
96.1 60 69 99.9 60 69 96 60.1 69 
99 60.9 69 100 60 69.1 95.1 61 69 
98.9 61 69 96 61.9 69 97 61.9 69 
98 61.9 69 96 61 69.9 99 61 69.1 
97 62 69.1 98 62 69.1 93 49.1 70 
94 49.1 70 96 49.1 70 98 49.1 70 
99 49.1 70 95 49 70.1 92.1 50 70 
94.9 50 70 95.1 50 70 96.9 50 70 
97.1 50 70 99.9 50 70 95 50.1 70 
97 50.1 70 98 50.9 70 92 50 70.1 
95 50 70.1 96 50 70.9 99 50 70.9 
92.1 51 70 97.9 51 70 98.1 51 70 
99.9 51 70 95 51.9 70 97 51.9 70 
92 51 70.1 96 51 70.9 97 51 70.9 
99 51 70.9 92.1 52 70 94.9 52 70 
95.1 52 70 96.9 52 70 98.1 52 70 
99.9 52 70 96 52.9 70 97 52.1 70 
98 52.1 70 92 52 70.1 96 52 70.9 
92.1 53 70 94.9 53 70 96.1 53 70 
99.9 53 70 93 53.9 70 97 53.9 70 
92 53 70.1 97 53 70.9 98 53 70.9 
100 53 70.1 93.1 54 70 94.9 54 70 
97.1 54 70 99.9 54 70 93 54.1 70 
97 54.1 70 100 54.1 70 101 54.1 70 
93 54 70.1 92.1 55 70 94.9 55 70 
96.1 55 70 101.9 55 70 93 55.9 70 
94 55.9 70 97 55.9 70 101 55.9 70 
94 55 70.9 97 55 70.9 100 55 70.9 
101 55 70.9 97.1 56 70 100.9 56 70 
101 56.1 70 97 56 70.1 101 56 70.1 
97.1 57 70 101.9 57 70 97 57.1 70 
101 57.9 70 97 57 70.1 96.1 58 70 
100.9 58 70 101 58 70.1 96.1 59 70 
100.9 59 70 101 59 70.1 96.1 60 70 
100.9 60 70 100 60.9 70 96.1 61 70 
99.9 61 70 99 61.9 70 100 61 70.1 
96.1 62 70 98.9 62 70 97 62.9 70 
98 62.9 70 99 62 70.1 100 62 70.1 
96 63 70.1 97 63 70.1 97 64 70.1 
94 47 71.1 95 48.1 71 94 48 71.1 
94.1 49 71 95.9 49 71 92 49.1 71 
93 49.1 71 94 49.1 71 98 49.1 71 
94 49 71.1 95 49 71.9 91.1 50 71 
95.9 50 71 97.1 50 71 98.9 50 71 
98 50.9 71 98 50 71.9 91.1 51 71 
95.9 51 71 95 51.9 71 99 51.1 71 
95 51 71.9 100 51 71.1 91.1 52 71 
94.9 52 71 98.1 52 71 99.9 52 71 
100 52.1 71 95 52 71.1 99 52 71.9 
100 52 71.1 91.1 53 71 94.9 53 71 
98.1 53 71 100.9 53 71 92 53.9 71 
98 53.1 71 100 53.9 71 91 53 71.1 
98 53 71.1 92.1 54 71 94.9 54 71 
97.1 54 71 99.9 54 71 94 54.9 71 
91 54 71.1 92 54 71.1 94 54 71.9 
92.1 55 71 93.9 55 71 97.1 55 71 
99.9 55 71 93 55.9 71 97 55.1 71 
100 55.1 71 101 55.1 71 93 55 71.9 
97 55 71.1 96.1 56 71 101.9 56 71 
101 56 71.9 96.1 57 71 101.9 57 71 
96 57 71.1 96.1 58 71 101.9 58 71 
96.1 59 71 101.9 59 71 101 59.9 71 
96.1 60 71 100.9 60 71 96 60 71.1 
96.1 61 71 100.9 61 71 96.1 62 71 
100.9 62 71 96 62.1 71 98 62.9 71 
99 62.9 71 100 62.9 71 96 62 71.1 
100 62 71.9 95.1 63 71 97.9 63 71 
96 63.9 71 98 63 71.1 96.1 64 71 
97.9 64 71 97 64.9 71 95 43 72.1 
95 44 72.1 94 46.1 72 92 46 72.1 
93.1 47 72 94.9 47 72 91 47 72.1 
92 47 72.1 93.1 48 72 94.9 48 72 
92 48 72.1 93 48 72.1 93.1 49 72 
94.9 49 72 92 49.1 72 93 49.1 72 
95 49.1 72 91 49 72.1 92 49 72.1 
93 49 72.1 91.1 50 72 95.9 50 72 
95 50.9 72 100 50.1 72 91 50 72.1 
95 50 72.9 91.1 51 72 94.9 51 72 
99.1 51 72 100.9 51 72 95 51.1 72 
91 51 72.1 94 51 72.9 100 51 72.9 
91.1 52 72 95.9 52 72 99.1 52 72 
100.9 52 72 91 52.1 72 95 52.9 72 
98 52.1 72 99 52.1 72 91 52 72.1 
94 52 72.9 95 52 72.9 98 52 72.1 
99 52 72.1 100 52 72.9 90.1 53 72 
94.9 53 72 97.1 53 72 100.9 53 72 
94 53.9 72 100 53.9 72 91 53 72.9 
[...]
POINT_DATA 6351
SCALARS scalars char
LOOKUP_TABLE default
0 0 0 0 0 0 0 0 0 
0 0 0 0 0 0 0 0 0 
0 0 0 0 0 0 0 0 0 
0 0 0 0 0 0 0 0 0 
0 0 0 0 0 0 0 0 0 
0 0 0 0 0 0 0 0 0 
0 0 0 0 0 0 0 0 0 
0 0 0 0 0 0 0 0 0 
0 0 0 0 0 0 0 0 0 
0 0 0 0 0 0 0 0 0 
0 0 0 0 0 0 0 0 0 
0 0 0 0 0 0 0 0 0 
0 0 0 0 0 0 0 0 0 
0 0 0 0 0 0 0 0 0 
0 0 0 0 0 0 0 0 0 
0 0 0 0 0 0 0 0 0 
0 0 0 0 0 0 0 0 0 
0 0 0 0 0 0 0 0 0 
0 0 0 0 0 0 0 0 0 
0 0 0 0 0 0 0 0 0 
0 0 0 0 0 0 0 0 0 
0 0 0 0 0 0 0 0 0 
0 0 0 0 0 0 0 0 0 
0 0 0 0 0 0 0 0 0 
0 0 0 0 0 0 0 0 0 
0 0 0 0 0 0 0 0 0 
0 0 0 0 0 0 0 0 0 
0 0 0 0 0 0 0 0 0 
0 0 0 0 0 0 0 0 0 
0 0 0 0 0 0 0 0 0 
0 0 0 0 0 0 0 0 0 
0 0 0 0 0 0 0 0 0 
0 0 0 0 0 0 0 0 0 
0 0 0 0 0 0 0 0 0 
0 0 0 0 0 0 0 0 0 
0 0 0 0 0 0 0 0 0 
0 0 0 0 0 0 0 0 0 
0 0 0 0 0 0 0 0 0 
0 0 0 0 0 0 0 0 0 
0 0 0 0 0 0 0 0 0 
0 0 0 0 0 0 0 0 0 
0 0 0 0 0 0 0 0 0 
0 0 0 0 0 0 0 0 0 
0 0 0 0 0 0 0 0 0 
0 0 0 0 0 0 0 0 0 
0 0 0 0 0 0 0 0 0 
0 0 0 0 0 0 0 0 0 
0 0 0 0 0 0 0 0 0 
0 0 0 0 0 0 0 0 0 
0 0 0 0 0 0 0 0 0 
0 0 0 0 0 0 0 0 0 
0 0 0 0 0 0 0 0 0 
0 0 0 0 0 0 0 0 0 
0 0 0 0 0 0 0 0 0 
0 0 0 0 0 0 0 0 0 
0 0 0 0 0 0 0 0 0 
0 0 0 0 0 0 0 0 0 
0 0 0 0 0 0 0 0 0 
0 0 0 0 0 0 0 0 0 
0 0 0 0 0 0 0 0 0 
0 0 0 0 0 0 0 0 0 
0 0 0 0 0 0 0 0 0 
0 0 0 0 0 0 0 0 0 
0 0 0 0 0 0 0 0 0 
0 0 0 0 0 0 0 0 0 
0 0 0 0 0 0 0 0 0 
0 0 0 0 0 0 0 0 0 
0 0 0 0 0 0 0 0 0 
0 0 0 0 0 0 0 0 0 
0 0 0 0 0 0 0 0 0 
0 0 0 0 0 0 0 0 0 
0 0 0 0 0 0 0 0 0 
0 0 0 0 0 0 0 0 0 
0 0 0 0 0 0 0 0 0 
0 0 0 0 0 0 0 0 0 
0 0 0 0 0 0 0 0 0 
0 0 0 0 0 0 0 0 0 
0 0 0 0 0 0 0 0 0 
0 0 0 0 0 0 0 0 0 
0 0 0 0 0 0 0 0 0 
0 0 0 0 0 0 0 0 0 
0 0 0 0 0 0 0 0 0 
0 0 0 0 0 0 0 0 0 
0 0 0 0 0 0 0 0 0 
0 0 0 0 0 0 0 0 0 
0 0 0 0 0 0 0 0 0 
0 0 0 0 0 0 0 0 0 
0 0 0 0 0 0 0 0 0 
0 0 0 0 0 0 0 0 0 
0 0 0 0 0 0 0 0 0 
0 0 0 0 0 0 0 0 0 
0 0 0 0 0 0 0 0 0 
0 0 0 0 0 0 0 0 0 
0 0 0 0 0 0 0 0 0 
0 0 0 0 0 0 0 0 0 
0 0 0 0 0 0 0 0 0 
0 0 0 0 0 0 0 0 0 
0 0 0 0 0 0 0 0 0 
0 0 0 0 0 0 0 0 0 
0 0 0 0 0 0 0 0 0 
0 0 0 0 0 0 0 0 0 
0 0 0 0 0 0 0 0 0 
0 0 0 0 0 0 0 0 0 
0 0 0 0 0 0 0 0 0 
0 0 0 0 0 0 0 0 0 
0 0 0 0 0 0 0 0 0 
0 0 0 0 0 0 0 0 0 
0 0 0 0 0 0 0 0 0 
0 0 0 0 0 0 0 0 0 
0 0 0 0 0 0 0 0 0 
0 0 0 0 0 0 0 0 0 
0 0 0 0 0 0 0 0 0 
0 0 0 0 0 0 0 0 0 
0 0 0 0 0 0 0 0 0 
0 0 0 0 0 0 0 0 0 
0 0 0 0 0 0 0 0 0 
0 0 0 0 0 0 0 0 0 
0 0 0 0 0 0 0 0 0 
0 0 0 0 0 0 0 0 0 
0 0 0 0 0 0 0 0 0 
0 0 0 0 0 0 0 0 0 
0 0 0 0 0 0 0 0 0 
0 0 0 0 0 0 0 0 0 
0 0 0 0 0 0 0 0 0 
0 0 0 0 0 0 0 0 0 
0 0 0 0 0 0 0 0 0 
0 0 0 0 0 0 0 0 0 
0 0 0 0 0 0 0 0 0 
0 0 0 0 0 0 0 0 0 
0 0 0 0 0 0 0 0 0 
0 0 0 0 0 0 0 0 0 
0 0 0 0 0 0 0 0 0 
0 0 0 0 0 0 0 0 0 
0 0 0 0 0 0 0 0 0 
0 0 0 0 0 0 0 0 0 
0 0 0 0 0 0 0 0 0 
0 0 0 0 0 0 0 0 0 
0 0 0 0 0 0 0 0 0 
0 0 0 0 0 0 0 0 0 
0 0 0 0 0 0 0 0 0 
0 0 0 0 0 0 0 0 0 
0 0 0 0 0 0 0 0 0 
0 0 0 0 0 0 0 0 0 
0 0 0 0 0 0 0 0 0 
0 0 0 0 0 0 0 0 0 
0 0 0 0 0 0 0 0 0 
0 0 0 0 0 0 0 0 0 
0 0 0 0 0 0 0 0 0 
0 0 0 0 0 0 0 0 0 
0 0 0 0 0 0 0 0 0 
0 0 0 0 0 0 0 0 0 
0 0 0 0 0 0 0 0 0 
0 0 0 0 0 0 0 0 0 
0 0 0 0 0 0 0 0 0 
0 0 0 0 0 0 0 0 0 
0 0 0 0 0 0 0 0 0 
0 0 0 0 0 0 0 0 0 
0 0 0 0 0 0 0 0 0 
0 0 0 0 0 0 0 0 0 
0 0 0 0 0 0 0 0 0 
0 0 0 0 0 0 0 0 0 
0 0 0 0 0 0 0 0 0 
0 0 0 0 0 0 0 0 0 
0 0 0 0 0 0 0 0 0 
0 0 0 0 0 0 0 0 0 
0 0 0 0 0 0 0 0 0 
0 0 0 0 0 0 0 0 0 
0 0 0 0 0 0 0 0 0 
0 0 0 0 0 0 0 0 0 
0 0 0 0 0 0 0 0 0 
0 0 0 0 0 0 0 0 0 
0 0 0 0 0 0 0 0 0 
0 0 0 0 0 0 0 0 0 
0 0 0 0 0 0 0 0 0 
0 0 0 0 0 0 0 0 0 
0 0 0 0 0 0 0 0 0 
0 0 0 0 0 0 0 0 0 
0 0 0 0 0 0 0 0 0 
0 0 0 0 0 0 0 0 0 
0 0 0 0 0 0 0 0 0 
0 0 0 0 0 0 0 0 0 
0 0 0 0 0 0 0 0 0 
0 0 0 0 0 0 0 0 0 
0 0 0 0 0 0 0 0 0 
0 0 0 0 0 0 0 0 0 
0 0 0 0 0 0 0 0 0 
0 0 0 0 0 0 0 0 0 
0 0 0 0 0 0 0 0 0 
0 0 0 0 0 0 0 0 0 
0 0 0 0 0 0 0 0 0 
0 0 0 0 0 0 0 0 0 
0 0 0 0 0 0 0 0 0 
0 0 0 0 0 0 0 0 0 
0 0 0 0 0 0 0 0 0 
0 0 0 0 0 0 0 0 0 
0 0 0 0 0 0 0 0 0 
0 0 0 0 0 0 0 0 0 
0 0 0 0 0 0 0 0 0 
0 0 0 0 0 0 0 0 0 
0 0 0 0 0 0 0 0 0 
0 0 0 0 0 0 0 0 0 
0 0 0 0 0 0 0 0 0 
0 0 0 0 0 0 0 0 0 
0 0 0 0 0 0 0 0 0 
0 0 0 0 0 0 0 0 0 
0 0 0 0 0 0 0 0 0 
0 0 0 0 0 0 0 0 0 
0 0 0 0 0 0 0 0 0 
0 0 0 0 0 0 0 0 0 
0 0 0 0 0 0 0 0 0 
0 0 0 0 0 0 0 0 0 
0 0 0 0 0 0 0 0 0 
0 0 0 0 0 0 0 0 0 
0 0 0 0 0 0 0 0 0 
0 0 0 0 0 0 0 0 0 
0 0 0 0 0 0 0 0 0 
0 0 0 0 0 0 0 0 0 
0 0 0 0 0 0 0 0 0 
0 0 0 0 0 0 0 0 0 
0 0 0 0 0 0 0 0 0 
0 0 0 0 0 0 0 0 0 
0 0 0 0 0 0 0 0 0 
0 0 0 0 0 0 0 0 0 
0 0 0 0 0 0 0 0 0 
0 0 0 0 0 0 0 0 0 
0 0 0 0 0 0 0 0 0 
0 0 0 0 0 0 0 0 0 
0 0 0 0 0 0 0 0 0 
0 0 0 0 0 0 0 0 0 
0 0 0 0 0 0 0 0 0 
0 0 0 0 0 0 0 0 0 
0 0 0 0 0 0 0 0 0 
0 0 0 0 0 0 0 0 0 
0 0 0 0 0 0 0 0 0 
0 0 0 0 0 0 0 0 0 
0 0 0 0 0 0 0 0 0 
0 0 0 0 0 0 0 0 0 
0 0 0 0 0 0 0 0 0 
0 0 0 0 0 0 0 0 0 
0 0 0 0 0 0 0 0 0 
0 0 0 0 0 0 0 0 0 
0 0 0 0 0 0 0 0 0 
0 0 0 0 0 0 0 0 0 
0 0 0 0 0 0 0 0 0 
0 0 0 0 0 0 0 0 0 
0 0 0 0 0 0 0 0 0 
0 0 0 0 0 0 0 0 0 
0 0 0 0 0 0 0 0 0 
0 0 0 0 0 0 0 0 0 
0 0 0 0 0 0 0 0 0 
0 0 0 0 0 0 0 0 0 
0 0 0 0 0 0 0 0 0 
0 0 0 0 0 0 0 0 0 
0 0 0 0 0 0 0 0 0 
0 0 0 0 0 0 0 0 0 
0 0 0 0 0 0 0 0 0 
0 0 0 0 0 0 0 0 0 
0 0 0 0 0 0 0 0 0 
0 0 0 0 0 0 0 0 0 
0 0 0 0 0 0 0 0 0 
0 0 0 0 0 0 0 0 0 
0 0 0 0 0 0 0 0 0 
0 0 0 0 0 0 0 0 0 
0 0 0 0 0 0 0 0 0 
0 0 0 0 0 0 0 0 0 
0 0 0 0 0 0 0 0 0 
0 0 0 0 0 0 0 0 0 
0 0 0 0 0 0 0 0 0 
0 0 0 0 0 0 0 0 0 
0 0 0 0 0 0 0 0 0 
0 0 0 0 0 0 0 0 0 
0 0 0 0 0 0 0 0 0 
0 0 0 0 0 0 0 0 0 
0 0 0 0 0 0 0 0 0 
0 0 0 0 0 0 0 0 0 
0 0 0 0 0 0 0 0 0 
0 0 0 0 0 0 0 0 0 
0 0 0 0 0 0 0 0 0 
0 0 0 0 0 0 0 0 0 
0 0 0 0 0 0 0 0 0 
0 0 0 0 0 0 0 0 0 
0 0 0 0 0 0 0 0 0 
0 0 0 0 0 0 0 0 0 
0 0 0 0 0 0 0 0 0 
0 0 0 0 0 0 0 0 0 
0 0 0 0 0 0 0 0 0 
0 0 0 0 0 0 0 0 0 
0 0 0 0 0 0 0 0 0 
0 0 0 0 0 0 0 0 0 
0 0 0 0 0 0 0 0 0 
0 0 0 0 0 0 0 0 0 
0 0 0 0 0 0 0 0 0 
0 0 0 0 0 0 0 0 0 
0 0 0 0 0 0 0 0 0 
0 0 0 0 0 0 0 0 0 
0 0 0 0 0 0 0 0 0 
0 0 0 0 0 0 0 0 0 
0 0 0 0 0 0 0 0 0 
0 0 0 0 0 0 0 0 0 
0 0 0 0 0 0 0 0 0 
0 0 0 0 0 0 0 0 0 
0 0 0 0 0 0 0 0 0 
0 0 0 0 0 0 0 0 0 
0 0 0 0 0 0 0 0 0 
0 0 0 0 0 0 0 0 0 
0 0 0 0 0 0 0 0 0 
0 0 0 0 0 0 0 0 0 
0 0 0 0 0 0 0 0 0 
0 0 0 0 0 0 0 0 0 
0 0 0 0 0 0 0 0 0 
0 0 0 0 0 0 0 0 0 
0 0 0 0 0 0 0 0 0 
0 0 0 0 0 0 0 0 0 
0 0 0 0 0 0 0 0 0 
0 0 0 0 0 0 0 0 0 
0 0 0 0 0 0 0 0 0 
0 0 0 0 0 0 0 0 0 
0 0 0 0 0 0 0 0 0 
0 0 0 0 0 0 0 0 0 
0 0 0 0 0 0 0 0 0 
0 0 0 0 0 0 0 0 0 
0 0 0 0 0 0 0 0 0 
0 0 0 0 0 0 0 0 0 
0 0 0 0 0 0 0 0 0 
0 0 0 0 0 0 0 0 0 
0 0 0 0 0 0 0 0 0 
0 0 0 0 0 0 0 0 0 
0 0 0 0 0 0 0 0 0 
0 0 0 0 0 0 0 0 0 
0 0 0 0 0 0 0 0 0 
0 0 0 0 0 0 0 0 0 
0 0 0 0 0 0 0 0 0 
0 0 0 0 0 0 0 0 0 
0 0 0 0 0 0 0 0 0 
0 0 0 0 0 0 0 0 0 
0 0 0 0 0 0 0 0 0 
0 0 0 0 0 0 0 0 0 
0 0 0 0 0 0 0 0 0 
0 0 0 0 0 0 0 0 0 
0 0 0 0 0 0 0 0 0 
0 0 0 0 0 0 0 0 0 
0 0 0 0 0 0 0 0 0 
0 0 0 0 0 0 0 0 0 
0 0 0 0 0 0 0 0 0 
0 0 0 0 0 0 0 0 0 
0 0 0 0 0 0 0 0 0 
0 0 0 0 0 0 0 0 0 
0 0 0 0 0 0 0 0 0 
0 0 0 0 0 0 0 0 0 
0 0 0 0 0 0 0 0 0 
0 0 0 0 0 0 0 0 0 
0 0 0 0 0 0 0 0 0 
0 0 0 0 0 0 0 0 0 
0 0 0 0 0 0 0 0 0 
0 0 0 0 0 0 0 0 0 
0 0 0 0 0 0 0 0 0 
0 0 0 0 0 0 0 0 0 
0 0 0 0 0 0 0 0 0 
0 0 0 0 0 0 0 0 0 
0 0 0 0 0 0 0 0 0 
0 0 0 0 0 0 0 0 0 
0 0 0 0 0 0 0 0 0 
0 0 0 0 0 0 0 0 0 
0 0 0 0 0 0 0 0 0 
0 0 0 0 0 0 0 0 0 
0 0 0 0 0 0 0 0 0 
0 0 0 0 0 0 0 0 0 
0 0 0 0 0 0 0 0 0 
0 0 0 0 0 0 0 0 0 
0 0 0 0 0 0 0 0 0 
0 0 0 0 0 0 0 0 0 
0 0 0 0 0 0 0 0 0 
0 0 0 0 0 0 0 0 0 
0 0 0 0 0 0 0 0 0 
0 0 0 0 0 0 0 0 0 
0 0 0 0 0 0 0 0 0 
0 0 0 0 0 0 0 0 0 
0 0 0 0 0 0 0 0 0 
0 0 0 0 0 0 0 0 0 
0 0 0 0 0 0 0 0 0 
0 0 0 0 0 0 0 0 0 
0 0 0 0 0 0 0 0 0 
0 0 0 0 0 0 0 0 0 
0 0 0 0 0 0 0 0 0 
0 0 0 0 0 0 0 0 0 
0 0 0 0 0 0 0 0 0 
0 0 0 0 0 0 0 0 0 
0 0 0 0 0 0 0 0 0 
0 0 0 0 0 0 0 0 0 
0 0 0 0 0 0 0 0 0 
0 0 0 0 0 0 0 0 0 
0 0 0 0 0 0 0 0 0 
0 0 0 0 0 0 0 0 0 
0 0 0 0 0 0 0 0 0 
0 0 0 0 0 0 0 0 0 
0 0 0 0 0 0 0 0 0 
0 0 0 0 0 0 0 0 0 
0 0 0 0 0 0 0 0 0 
0 0 0 0 0 0 0 0 0 
0 0 0 0 0 0 0 0 0 
0 0 0 0 0 0 0 0 0 
0 0 0 0 0 0 0 0 0 
0 0 0 0 0 0 0 0 0 
0 0 0 0 0 0 0 0 0 
0 0 0 0 0 0 0 0 0 
0 0 0 0 0 0 0 0 0 
0 0 0 0 0 0 0 0 0 
0 0 0 0 0 0 0 0 0 
0 0 0 0 0 0 0 0 0 
0 0 0 0 0 0 0 0 0 
0 0 0 0 0 0 0 0 0 
0 0 0 0 0 0 0 0 0 
0 0 0 0 0 0 0 0 0 
0 0 0 0 0 0 0 0 0 
0 0 0 0 0 0 0 0 0 
0 0 0 0 0 0 0 0 0 
0 0 0 0 0 0 0 0 0 
0 0 0 0 0 0 0 0 0 
0 0 0 0 0 0 0 0 0 
0 0 0 0 0 0 0 0 0 
0 0 0 0 0 0 0 0 0 
0 0 0 0 0 0 0 0 0 
0 0 0 0 0 0 0 0 0 
0 0 0 0 0 0 0 0 0 
0 0 0 0 0 0 0 0 0 
0 0 0 0 0 0 0 0 0 
0 0 0 0 0 0 0 0 0 
0 0 0 0 0 0 0 0 0 
0 0 0 0 0 0 0 0 0 
0 0 0 0 0 0 0 0 0 
0 0 0 0 0 0 0 0 0 
0 0 0 0 0 0 0 0 0 
0 0 0 0 0 0 0 0 0 
0 0 0 0 0 0 0 0 0 
0 0 0 0 0 0 0 0 0 
0 0 0 0 0 0 0 0 0 
0 0 0 0 0 0 0 0 0 
0 0 0 0 0 0 0 0 0 
0 0 0 0 0 0 0 0 0 
0 0 0 0 0 0 0 0 0 
0 0 0 0 0 0 0 0 0 
0 0 0 0 0 0 0 0 0 
0 0 0 0 0 0 0 0 0 
0 0 0 0 0 0 0 0 0 
0 0 0 0 0 0 0 0 0 
0 0 0 0 0 0 0 0 0 
0 0 0 0 0 0 0 0 0 
0 0 0 0 0 0 0 0 0 
0 0 0 0 0 0 0 0 0 
0 0 0 0 0 0 0 0 0 
0 0 0 0 0 0 0 0 0 
0 0 0 0 0 0 0 0 0 
0 0 0 0 0 0 0 0 0 
0 0 0 0 0 0 0 0 0 
0 0 0 0 0 0 0 0 0 
0 0 0 0 0 0 0 0 0 
0 0 0 0 0 0 0 0 0 
0 0 0 0 0 0 0 0 0 
0 0 0 0 0 0 0 0 0 
0 0 0 0 0 0 0 0 0 
0 0 0 0 0 0 0 0 0 
0 0 0 0 0 0 0 0 0 
0 0 0 0 0 0 0 0 0 
0 0 0 0 0 0 0 0 0 
0 0 0 0 0 0 0 0 0 
0 0 0 0 0 0 0 0 0 
0 0 0 0 0 0 0 0 0 
0 0 0 0 0 0 0 0 0 
0 0 0 0 0 0 0 0 0 
0 0 0 0 0 0 0 0 0 
0 0 0 0 0 0 0 0 0 
0 0 0 0 0 0 0 0 0 
0 0 0 0 0 0 0 0 0 
0 0 0 0 0 0 0 0 0 
0 0 0 0 0 0 0 0 0 
0 0 0 0 0 0 0 0 0 
0 0 0 0 0 0 0 0 0 
0 0 0 0 0 0 0 0 0 
0 0 0 0 0 0 0 0 0 
0 0 0 0 0 0 0 0 0 
0 0 0 0 0 0 0 0 0 
0 0 0 0 0 0 0 0 0 
0 0 0 0 0 0 0 0 0 
0 0 0 0 0 0 0 0 0 
0 0 0 0 0 0 0 0 0 
0 0 0 0 0 0 0 0 0 
0 0 0 0 0 0 0 0 0 
0 0 0 0 0 0 0 0 0 
0 0 0 0 0 0 0 0 0 
0 0 0 0 0 0 0 0 0 
0 0 0 0 0 0 0 0 0 
0 0 0 0 0 0 0 0 0 
0 0 0 0 0 0 0 0 0 
0 0 0 0 0 0 0 0 0 
0 0 0 0 0 0 0 0 0 
0 0 0 0 0 0 0 0 0 
0 0 0 0 0 0 0 0 0 
0 0 0 0 0 0 0 0 0 
0 0 0 0 0 0 0 0 0 
0 0 0 0 0 0 0 0 0 
0 0 0 0 0 0 0 0 0 
0 0 0 0 0 0 0 0 0 
0 0 0 0 0 0 0 0 0 
0 0 0 0 0 0 0 0 0 
0 0 0 0 0 0 0 0 0 
0 0 0 0 0 0 0 0 0 
0 0 0 0 0 0 0 0 0 
0 0 0 0 0 0 0 0 0 
0 0 0 0 0 0 0 0 0 
0 0 0 0 0 0 0 0 0 
0 0 0 0 0 0 0 0 0 
0 0 0 0 0 0 0 0 0 
0 0 0 0 0 0 0 0 0 
0 0 0 0 0 0 0 0 0 
0 0 0 0 0 0 0 0 0 
0 0 0 0 0 0 0 0 0 
0 0 0 0 0 0 0 0 0 
0 0 0 0 0 0 0 0 0 
0 0 0 0 0 0 0 0 0 
0 0 0 0 0 0 0 0 0 
0 0 0 0 0 0 0 0 0 
0 0 0 0 0 0 0 0 0 
0 0 0 0 0 0 0 0 0 
0 0 0 0 0 0 0 0 0 
0 0 0 0 0 0 0 0 0 
0 0 0 0 0 0 0 0 0 
0 0 0 0 0 0 0 0 0 
0 0 0 0 0 0 0 0 0 
0 0 0 0 0 0 0 0 0 
0 0 0 0 0 0 0 0 0 
0 0 0 0 0 0 0 0 0 
0 0 0 0 0 0 0 0 0 
0 0 0 0 0 0 0 0 0 
0 0 0 0 0 0 0 0 0 
0 0 0 0 0 0 0 0 0 
0 0 0 0 0 0 0 0 0 
0 0 0 0 0 0 0 0 0 
0 0 0 0 0 0 0 0 0 
0 0 0 0 0 0 0 0 0 
0 0 0 0 0 0 0 0 0 
0 0 0 0 0 0 0 0 0 
0 0 0 0 0 0 0 0 0 
0 0 0 0 0 0 0 0 0 
0 0 0 0 0 0 0 0 0 
0 0 0 0 0 0 0 0 0 
0 0 0 0 0 0 0 0 0 
0 0 0 0 0 0 0 0 0 
0 0 0 0 0 0 0 0 0 
0 0 0 0 0 0 0 0 0 
0 0 0 0 0 0 0 0 0 
0 0 0 0 0 0 0 0 0 
0 0 0 0 0 0 0 0 0 
0 0 0 0 0 0 0 0 0 
0 0 0 0 0 0 0 0 0 
0 0 0 0 0 0 0 0 0 
0 0 0 0 0 0 0 0 0 
0 0 0 0 0 0 0 0 0 
0 0 0 0 0 0 0 0 0 
0 0 0 0 0 0 0 0 0 
0 0 0 0 0 0 0 0 0 
0 0 0 0 0 0 0 0 0 
0 0 0 0 0 0 0 0 0 
0 0 0 0 0 0 0 0 0 
0 0 0 0 0 0 0 0 0 
0 0 0 0 0 0 0 0 0 
0 0 0 0 0 0 0 0 0 
0 0 0 0 0 0 0 0 0 
0 0 0 0 0 0 0 0 0 
0 0 0 0 0 0 0 0 0 
0 0 0 0 0 0 0 0 0 
0 0 0 0 0 0 0 0 0 
0 0 0 0 0 0 0 0 0 
0 0 0 0 0 0 0 0 0 
0 0 0 0 0 0 0 0 0 
0 0 0 0 0 0 0 0 0 
0 0 0 0 0 0 0 0 0 
0 0 0 0 0 0 0 0 0 
0 0 0 0 0 0 0 0 0 
0 0 0 0 0 0 0 0 0 
0 0 0 0 0 0 0 0 0 
0 0 0 0 0 0 0 0 0 
0 0 0 0 0 0 0 0 0 
0 0 0 0 0 0 0 0 0 
0 0 0 0 0 0 0 0 0 
0 0 0 0 0 0 0 0 0 
0 0 0 0 0 0 0 0 0 
0 0 0 0 0 0 0 0 0 
0 0 0 0 0 0 0 0 0 
0 0 0 0 0 0 0 0 0 
0 0 0 0 0 0 0 0 0 
0 0 0 0 0 0 0 0 0 
0 0 0 0 0 0 0 0 0 
0 0 0 0 0 0 0 0 0 
0 0 0 0 0 0 0 0 0 
0 0 0 0 0 0 0 0 0 
0 0 0 0 0 0 0 0 0 
0 0 0 0 0 0 0 0 0 
0 0 0 0 0 0 0 0 0 
0 0 0 0 0 0 0 0 0 
0 0 0 0 0 0 0 0 0 
0 0 0 0 0 0 0 0 0 
0 0 0 0 0 0 0 0 0 
0 0 0 0 0 0 0 0 0 
0 0 0 0 0 0 0 0 0 
0 0 0 0 0 0 0 0 0 
0 0 0 0 0 0 0 0 0 
0 0 0 0 0 0 0 0 0 
0 0 0 0 0 0 0 0 0 
0 0 0 0 0 0 0 0 0 
0 0 0 0 0 0 0 0 0 
0 0 0 0 0 0 0 0 0 
0 0 0 0 0 0 0 0 0 
0 0 0 0 0 0 0 0 0 
0 0 0 0 0 0 0 0 0 
0 0 0 0 0 0 0 0 0 
0 0 0 0 0 0 0 0 0 
0 0 0 0 0 0 0 0 0 
0 0 0 0 0 0 0 0 0 
0 0 0 0 0 0 0 0 0 
0 0 0 0 0 0 0 0 0 
0 0 0 0 0 0 0 0 0 
0 0 0 0 0 0 0 0 0 
0 0 0 0 0 0 0 0 0 
0 0 0 0 0 0 0 0 0 
0 0 0 0 0 0 0 0 0 
0 0 0 0 0 0 0 0 0 
0 0 0 0 0 0 0 0 0 
0 0 0 0 0 0 0 0 0 
0 0 0 0 0 0 0 0 0 
0 0 0 0 0 0 0 0 0 
0 0 0 0 0 0 0 0 0 
0 0 0 0 0 0 0 0 0 
0 0 0 0 0 0 0 0 0 
0 0 0 0 0 0 0 0 0 
0 0 0 0 0 0 0 0 0 
0 0 0 0 0 0 0 0 0 
0 0 0 0 0 0 0 0 0 
0 0 0 0 0 0 0 0 0 
0 0 0 0 0 0 0 0 0 
0 0 0 0 0 0 0 0 0 
0 0 0 0 0 0 0 0 0 
0 0 0 0 0 0 0 0 0 
0 0 0 0 0 0 0 0 0 
0 0 0 0 0 0 0 0 0 
0 0 0 0 0 0 0 0 0 
0 0 0 0 0 0 0 0 0 
0 0 0 0 0 0 0 0 0 
0 0 0 0 0 0 0 0 0 
0 0 0 0 0 0 0 0 0 
0 0 0 0 0 0 0 0 0 
0 0 0 0 0 0 0 0 0 
0 0 0 0 0 0 0 0 0 
0 0 0 0 0 0 0 0 0 
0 0 0 0 0 0 0 0 0 
0 0 0 0 0 0 0 0 0 
0 0 0 0 0 0 0 0 0 
0 0 0 0 0 0 0 0 0 
0 0 0 0 0 0 0 0 0 
0 0 0 0 0 0 0 0 0 
0 0 0 0 0 0 0 0 0 
0 0 0 0 0 0 0 0 0 
0 0 0 0 0 0 0 0 0 
0 0 0 0 0 0 0 0 0 
0 0 0 0 0 0 0 0 0 
0 0 0 0 0 0 0 0 0 
0 0 0 0 0 0 0 0 0 
0 0 0 0 0 0 0 0 0 
0 0 0 0 0 0 0 0 0 
0 0 0 0 0 0 0 0 0 
0 0 0 0 0 0 0 0 0 
0 0 0 0 0 0 0 0 0 
0 0 0 0 0 0 0 0 0 
0 0 0 0 0 0 0 0 0 
0 0 0 0 0 0 0 0 0 
0 0 0 0 0 0 0 0 0 
0 0 0 0 0 0 0 0 0 
0 0 0 0 0 0 0 0 0 
0 0 0 0 0 0 0 0 0 
0 0 0 0 0 0 0 0 0 
0 0 0 0 0 0 0 0 0 
0 0 0 0 0 0 0 0 0 
0 0 0 0 0 0 0 0 0 
0 0 0 0 0 0 0 0 0 
0 0 0 0 0 0 0 0 0 
0 0 0 0 0 0 0 0 0 
0 0 0 0 0 0 0 0 0 
0 0 0 0 0 0 0 0 0 
0 0 0 0 0 0 0 0 0 
0 0 0 0 0 0 0 0 0 
0 0 0 0 0 0 0 0 0 
0 0 0 0 0 0 0 0 0 
0 0 0 0 0 0 0 0 0 
0 0 0 0 0 0 0 0 0 
0 0 0 0 0 0 0 0 0 
0 0 0 0 0 0 0 0 0 
0 0 0 0 0 0 0 0 0 
0 0 0 0 0 0 0 0 0 
0 0 0 0 0 0 0 0 0 
0 0 0 0 0 0 0 0 0 
0 0 0 0 0 0 0 0 0 
0 0 0 0 0 0 0 0 0 
0 0 0 0 0 0 0 0 0 
0 0 0 0 0 0 0 0 0 
0 0 0 0 0 0 0 0 0 
0 0 0 0 0 0 0 0 0 
0 0 0 0 0 0 
NORMALS Normals float
-0.109764 -0.109764 -0.987878 0.0990148 -0.0990148 -0.990148 -0.0995037 -0 -0.995037 
0.0995037 -0 -0.995037 -0.0995037 -0 -0.995037 0.0995037 -0 -0.995037 
-0.0995037 -0 -0.995037 0.0990148 0.0990148 -0.990148 -0 -0 -1 
-0 -0 -1 -0 0.0995037 -0.995037 -0.0995037 -0.995037 -0 
0.0990148 -0.990148 -0.0990148 -0.995037 -0.0995037 -0 0.990148 -0.0990148 -0.0990148 
-0.707107 -0.707107 -0 -0.995037 -0 -0.0995037 0.995037 -0 -0.0995037 
-0.995037 -0 -0.0995037 0.995037 -0 -0.0995037 -0.995037 -0 -0.0995037 
0.990148 0.0990148 -0.0990148 0.57735 0.57735 -0.57735 -0.993884 -0 -0.110432 
0.556022 0.556022 -0.617802 0.57735 0.57735 -0.57735 -0.668965 -0 -0.743294 
0.993884 -0 -0.110432 -0.705346 -0.0705346 -0.705346 -0.667124 0.0741249 -0.741249 
0.987878 0.109764 -0.109764 -0 0.995037 -0.0995037 -0.705346 0.0705346 -0.705346 
-0 -1 -0 -0.668965 -0.743294 -0 0.704934 -0.0783261 -0.704934 
-0.707107 -0.707107 -0 -0.110432 -0 -0.993884 -0.667124 -0.741249 -0.0741249 
0.705346 -0.0705346 -0.705346 -0.995037 -0.0995037 -0 0.743294 -0 -0.668965 
0.707107 -0 -0.707107 -0.743294 -0 -0.668965 0.743294 -0 -0.668965 
-0.705346 -0.0705346 -0.705346 0.707107 -0 -0.707107 -0.743294 -0 -0.668965 
0.743294 -0 -0.668965 -0.707107 -0 -0.707107 0.705346 0.0705346 -0.705346 
-0.617802 -0.556022 -0.556022 0.990148 0.0990148 -0.0990148 -0.57735 -0.57735 -0.57735 
0.705346 0.705346 -0.0705346 -0.59655 -0.536895 -0.59655 -0.990148 -0.0990148 -0.0990148 
0.743294 0.668965 -0 -0.990148 0.0990148 -0.0990148 0.995037 0.0995037 -0 
-0.0990148 0.990148 -0.0990148 0.0995037 0.995037 -0 -0.110432 -0.993884 -0 
-0 -0.707107 -0.707107 -0 -0.743294 -0.668965 0.0990148 -0.990148 -0.0990148 
-0.0741249 -0.741249 -0.667124 0.0741249 -0.741249 -0.667124 -1 -0 -0 
0.990148 -0.0990148 -0.0990148 -0.743294 -0 -0.668965 -0.617802 -0.556022 0.556022 
-0.743294 -0 -0.668965 0.995037 -0 -0.0995037 -0.705346 -0.0705346 -0.705346 
-0.705346 -0.0705346 -0.705346 -0.990148 -0.0990148 -0.0990148 0.995037 -0 -0.0995037 
-0.995037 -0 -0.0995037 0.990148 0.0990148 -0.0990148 0.705346 0.705346 -0.0705346 
-0.995037 -0 -0.0995037 0.707107 0.707107 -0 0.707107 0.707107 -0 
-1 -0 -0 0.743294 0.668965 -0 -0.995037 0.0995037 -0 
0.995037 0.0995037 -0 -0.0995037 0.995037 -0 0.0995037 0.995037 -0 
-0.0995037 -0.995037 -0 0.0995037 -0.995037 -0 -0.995037 -0.0995037 -0 
0.59655 -0.59655 -0.536895 0.59655 -0.59655 -0.536895 -0.0741249 -0.741249 0.667124 
-0.511101 -0.638877 0.574989 0.511101 -0.638877 -0.574989 0.0990148 -0.0990148 -0.990148 
-0.617802 -0.556022 0.556022 0.741249 -0.0741249 -0.667124 -0.615457 -0.615457 0.492366 
0.705346 0.0705346 -0.705346 -0.990148 -0.0990148 -0.0990148 1 -0 -0 
-1 -0 -0 1 -0 -0 -0.743294 -0 -0.668965 
0.995037 0.0995037 -0 0.707107 0.707107 -0 -0.741249 -0.0741249 -0.667124 
-0.743294 -0 -0.668965 0.707107 0.707107 -0 0.59655 0.59655 -0.536895 
-0.741249 0.0741249 -0.667124 -1 -0 -0 0.617802 0.556022 -0.556022 
0.57735 0.57735 -0.57735 -0.995037 0.0995037 -0 0.995037 0.0995037 -0 
-0.0741249 0.741249 -0.667124 0.0995037 0.995037 -0 -0.0995037 -0 -0.995037 
0.0705346 0.705346 -0.705346 -0.0995037 -0.995037 -0 0.0990148 -0.990148 -0.0990148 
-0.59655 -0.59655 0.536895 0.990148 -0.0990148 -0.0990148 -0.0705346 -0.705346 0.705346 
-0.556022 -0.617802 0.556022 -0.59655 -0.59655 0.536895 -0.705346 -0.705346 0.0705346 
0.990148 0.0990148 -0.0990148 -0.705346 -0.705346 0.0705346 0.57735 0.57735 -0.57735 
-0.57735 -0.57735 0.57735 -0.990148 -0.0990148 0.0990148 0.617802 0.556022 -0.556022 
-0.57735 -0.57735 0.57735 0.59655 0.536895 -0.59655 -0.743294 -0.668965 -0 
0.743294 -0 -0.668965 -0.707107 -0.707107 -0 0.707107 -0 -0.707107 
-0.995037 -0.0995037 -0 0.741249 0.0741249 -0.667124 0.59655 0.59655 -0.536895 
-0.109764 -0.109764 0.987878 -0.993884 -0 0.110432 0.705346 0.0705346 -0.705346 
-0.995037 0.0995037 -0 0.617802 0.556022 -0.556022 -0.707107 0.707107 -0 
-0.741249 0.0741249 0.667124 0.57735 0.57735 -0.57735 -0.743294 0.668965 -0 
0.990148 0.0990148 -0.0990148 0.57735 0.57735 -0.57735 -0.743294 -0.668965 -0 
0.59655 0.59655 -0.536895 -0.741249 -0.667124 -0.0741249 0.59655 0.59655 -0.536895 
0.57735 0.57735 -0.57735 -0.995037 -0 -0.0995037 0.57735 0.57735 -0.57735 
-0.109764 0.987878 -0.109764 0.0990148 0.990148 -0.0990148 0.57735 0.57735 -0.57735 
-0 -1 -0 -0.556022 -0.617802 0.556022 0.993884 -0.110432 -0 
-0.0995037 -0.995037 -0 -0.536895 -0.59655 0.59655 -0.59655 -0.59655 0.536895 
1 -0 -0 -0.57735 -0.57735 0.57735 -0 -0.995037 0.0995037 
-0.57735 -0.57735 0.57735 0.707107 -0 -0.707107 -0.59655 -0.536895 0.59655 
-0.705346 -0.0705346 0.705346 0.707107 -0 -0.707107 -0.995037 -0 0.0995037 
0.995037 -0 -0.0995037 -0.995037 -0 0.0995037 -0.0741249 -0.667124 0.741249 
-0.556022 -0.556022 0.617802 -0 -0 1 -1 -0 -0 
0.990148 0.0990148 -0.0990148 -0.995037 -0.0995037 -0 0.57735 0.57735 -0.57735 
-0.995037 -0.0995037 -0 -0.741249 -0.0741249 0.667124 0.57735 0.57735 -0.57735 
0.57735 0.57735 -0.57735 0.57735 0.57735 -0.57735 -0.995037 -0 0.0995037 
0.617802 0.556022 -0.556022 -0.707107 -0 0.707107 0.59655 0.59655 -0.536895 
-0.743294 -0.668965 -0 0.990148 0.0990148 -0.0990148 -0.743294 -0.668965 -0 
0.705346 0.705346 -0.0705346 -1 -0 -0 0.705346 0.705346 -0.0705346 
-0.110432 0.993884 -0 -0 0.995037 0.0995037 0.0990148 0.990148 -0.0990148 
-0 0.995037 0.0995037 -0 -1 -0 -0.993884 -0.110432 -0 
0.993884 -0.110432 -0 -0 -0.995037 0.0995037 -0.987878 -0.109764 0.109764 
-0 -0.995037 0.0995037 -0 -1 -0 0.57735 -0.57735 -0.57735 
-0 -0.993884 0.110432 0.59655 -0.536895 -0.59655 -0.536895 -0.59655 0.59655 
-0.109764 -0.987878 -0.109764 0.57735 -0.57735 -0.57735 -0.743294 -0 0.668965 
0.707107 -0 -0.707107 -0 -0 1 0.59655 0.536895 -0.59655 
-0 -0 1 0.705346 -0.0705346 -0.705346 -0.556022 -0.556022 0.617802 
-0 -0 1 -0 -0 -0 0.57735 0.57735 -0.57735 
-0.0741249 -0.741249 0.667124 -0.536895 -0.59655 0.59655 -0 -1 -0 
-0.993884 -0 0.110432 -0.57735 -0.57735 -0.57735 0.556022 0.556022 -0.617802 
0.0995037 -0 -0.995037 -0.995037 -0.0995037 -0 0.743294 -0 -0.668965 
-0.109764 -0.109764 0.987878 -0.667124 -0.741249 0.0741249 0.668965 -0 -0.743294 
0.0995037 -0 -0.995037 -0.990148 0.0990148 0.0990148 0.705346 0.0705346 -0.705346 
-0.705346 0.0705346 0.705346 0.57735 0.57735 -0.57735 -0.705346 0.0705346 0.705346 
0.668965 -0 -0.743294 0.0990148 0.0990148 -0.990148 -0.743294 -0 0.668965 
0.59655 0.59655 -0.536895 -0.743294 -0 0.668965 0.59655 0.59655 -0.536895 
0.707107 0.707107 -0 0.511101 0.574989 -0.638877 0.0990148 0.0990148 -0.990148 