# vtk DataFile Version 5.1
vtk output
ASCII
DATASET POLYDATA
POINTS 8398 float
120 55 57.1 120 56 57.1 122 56 57.1 
121 57 57.1 122 57 57.1 120 54.1 58 
119.1 55 58 120.9 55 58 122 55.1 58 
121 55 58.1 119.1 56 58 120.9 56 58 
121.1 56 58 122.9 56 58 120 56.9 58 
121 56.1 58 119 56 58.1 121 56 58.1 
120.1 57 58 122.9 57 58 121 57.9 58 
122 57.9 58 120 57 58.1 120 54.1 59 
121 54.1 59 119.1 55 59 121.9 55 59 
119 55.1 59 122 55.1 59 118.1 56 59 
122.9 56 59 119 56.9 59 120 56 59.9 
119.1 57 59 122.9 57 59 120 57.9 59 
121 57.9 59 122 57.9 59 73 29 60.1 
73 30 60.1 120 54.1 60 121 54.1 60 
119.1 55 60 121.9 55 60 119 55.1 60 
120 55.9 60 122 55.1 60 118.1 56 60 
119.9 56 60 120.1 56 60 122.9 56 60 
119 56.9 60 120 56.1 60 119.1 57 60 
122.9 57 60 120 57.9 60 121 57.9 60 
122 57.9 60 119 57 60.1 120 58 60.1 
120 59 60.1 73 28.1 61 72.1 29 61 
73.9 29 61 72 29 61.1 73 29 61.9 
74 29 61.1 72.1 30 61 73.9 30 61 
73 30.9 61 72 30 61.1 74 30 61.1 
73 31 61.1 120 54.1 61 121 54.1 61 
120 54 61.1 119.1 55 61 121.9 55 61 
119 55.1 61 120 55.9 61 122 55.1 61 
119 55 61.1 118.1 56 61 119.9 56 61 
120.1 56 61 122.9 56 61 120 56.1 61 
120 56 61.1 118.1 57 61 122.9 57 61 
119 57.9 61 121 57.9 61 122 57.9 61 
118 57 61.1 119.1 58 61 120.9 58 61 
118 58 61.1 119 58 61.1 119.1 59 61 
120.9 59 61 120 59.9 61 72 28.1 62 
74 28.1 62 71.1 29 62 72.9 29 62 
73.1 29 62 74.9 29 62 73 29.1 62 
72 29 62.9 73 29 62.1 75 29 62.1 
71.1 30 62 74.9 30 62 72 30.9 62 
74 30.9 62 75 30 62.1 72.1 31 62 
73.9 31 62 73 31.9 62 73 31 62.9 
74 31 62.1 75 31 62.1 120 53.1 62 
119.1 54 62 120.9 54 62 119 54.1 62 
121 54.1 62 120 54 62.9 118.1 55 62 
121.9 55 62 122 55.1 62 118.1 56 62 
122.9 56 62 118 56.1 62 118 56 62.1 
117.1 57 62 122.9 57 62 121 57.9 62 
122 57.9 62 120 57 62.9 121 57 62.9 
117.1 58 62 120.9 58 62 118 58.9 62 
119 58.9 62 118 58 62.9 119 58 62.9 
121 58 62.1 122 58 62.1 119.1 59 62 
120.9 59 62 120 59.9 62 118 59 62.1 
119 59 62.1 121 59 62.1 73 28.1 63 
74 28.1 63 75 28.1 63 79 28 63.1 
80 28 63.1 72.1 29 63 75.9 29 63 
72 29.1 63 73 29 63.9 74 29 63.9 
75 29 63.9 76 29 63.1 77 29 63.1 
78 29 63.1 79 29 63.1 80 29 63.1 
71.1 30 63 75.9 30 63 72 30.9 63 
73 30.9 63 72 30 63.9 73 30 63.9 
75 30 63.9 77 30 63.1 73.1 31 63 
75.9 31 63 74 31.9 63 75 31.9 63 
74 31 63.9 75 31 63.9 119 54.1 63 
120 54.1 63 121 54.1 63 118.1 55 63 
121.9 55 63 118 55.1 63 122 55.1 63 
119 55 63.9 120 55 63.9 121 55 63.9 
117.1 56 63 122.9 56 63 120 56.9 63 
121 56.9 63 118 56 63.9 122 56 63.9 
117.1 57 63 119.9 57 63 121.1 57 63 
122.9 57 63 118 57.9 63 119 57.9 63 
120 57.1 63 121 57.1 63 117 57 63.1 
120 57 63.1 121 57 63.1 119.1 58 63 
122.9 58 63 118 58.1 63 119 58.1 63 
122 58.9 63 118 58 63.1 119 58 63.1 
117.1 59 63 121.9 59 63 118 59.9 63 
119 59.9 63 120 59.9 63 121 59.9 63 
121 59 63.9 120 60 63.1 79 27.1 64 
80 27.1 64 79 27 64.1 80 27 64.1 
78.1 28 64 80.9 28 64 76 28.1 64 
77 28.1 64 78 28.1 64 77 28 64.1 
81 28 64.1 75.1 29 64 80.9 29 64 
74 29.1 64 76 29.9 64 78 29.9 64 
79 29.9 64 80 29.9 64 76 29 64.9 
79 29 64.9 80 29 64.9 81 29 64.1 
73.1 30 64 74.9 30 64 76.1 30 64 
77.9 30 64 74 30.9 64 77 30.9 64 
74 30 64.9 77 30 64.9 119 55.1 64 
120 55.1 64 121 55.1 64 118.1 56 64 
121.9 56 64 117 56.1 64 118 56.1 64 
122 56.1 64 118 56 64.1 116.1 57 64 
122.9 57 64 117 57.9 64 122 57 64.9 
117.1 58 64 122.9 58 64 121 58.9 64 
122 58.9 64 117 58 64.1 122 58 64.9 
117.1 59 64 120.9 59 64 118 59.9 64 
119 59.9 64 121 59 64.1 119.1 60 64 
120.9 60 64 120 60.9 64 117 60 64.1 
119 60 64.1 119 61 64.1 79 26.1 65 
80 26.1 65 78.1 27 65 80.9 27 65 
77 27.1 65 81 27.1 65 79 27 65.9 
81 27 65.1 76.1 28 65 77.9 28 65 
78.1 28 65 81.9 28 65 78 28.1 65 
79 28.9 65 80 28.9 65 77 28 65.9 
79 28 65.9 82 28 65.1 83 28 65.1 
76.1 29 65 78.9 29 65 80.1 29 65 
81.9 29 65 77 29.9 65 78 29.9 65 
81 29.9 65 77 29 65.9 78 29 65.9 
83 29 65.1 118 55.1 65 119 55.1 65 
120 55.1 65 121 55.1 65 120 55 65.1 
117.1 56 65 121.9 56 65 117 56.1 65 
117 56 65.1 121 56 65.9 116.1 57 65 
121.9 57 65 116 57 65.1 120 57 65.9 
121 57 65.9 116.1 58 65 121.9 58 65 
117 58.9 65 116 58 65.1 117.1 59 65 
121.9 59 65 117 59.1 65 118 59.9 65 
121 59.9 65 116.1 60 65 117.9 60 65 
118.1 60 65 120.9 60 65 117 60.9 65 
120 60.9 65 116 60 65.1 118 60 65.1 
118.1 61 65 119.9 61 65 119 61.9 65 
117 61 65.1 119 61 65.9 80 26.1 66 
81 26.1 66 79.1 27 66 81.9 27 66 
82 27.1 66 83 27.1 66 80 27 66.9 
81 27 66.9 79.1 28 66 83.9 28 66 
80 28.9 66 82 28.9 66 80 28 66.9 
81 28 66.9 82 28 66.9 84 28 66.1 
80.1 29 66 81.9 29 66 82.1 29 66 
83.9 29 66 81 29.9 66 83 29.9 66 
80 29 66.1 82 29 66.1 83 29 66.9 
82 30 66.1 82 31 66.1 120 54.1 66 
116 54 66.1 119.1 55 66 120.9 55 66 
117 55.1 66 118 55.1 66 119 55.1 66 
120 55 66.9 116.1 56 66 120.9 56 66 
116 56.1 66 120 56.9 66 116 56 66.1 
121 56 66.1 115.1 57 66 119.9 57 66 
120 57.1 66 121 57.1 66 115 57 66.1 
115.1 58 66 121.9 58 66 116 58.9 66 
117 58.9 66 118 58 66.9 117.1 59 66 
121.9 59 66 116 59.1 66 117 59.1 66 
121 59.9 66 116 59 66.1 117 59 66.1 
115.1 60 66 120.9 60 66 116 60.9 66 
118 60.9 66 119 60.9 66 120 60.9 66 
117 60 66.9 116.1 61 66 117.9 61 66 
117 61.9 66 116 61 66.1 118 61 66.1 
119 61 66.1 83 27.1 67 84 27.1 67 
82.1 28 67 84.9 28 67 80 28.1 67 
81 28.1 67 82 28.1 67 83 28.9 67 
84 28.9 67 83 28 67.9 85 28 67.1 
79.1 29 67 82.9 29 67 80 29.9 67 
81 29.9 67 80 29 67.9 81 29 67.9 
82 29 67.9 83 29 67.1 84 29 67.1 
85 29 67.1 86 29 67.1 81.1 30 67 
82.9 30 67 82 30 67.9 83 30 67.1 
81.1 31 67 82.9 31 67 82 31.9 67 
82 31 67.9 116 53.1 67 115.1 54 67 
116.9 54 67 116 54.9 67 115 54 67.1 
117 54 67.1 118 54 67.1 116 55.1 67 
117 55.1 67 118 55.1 67 119 55.1 67 
120 55.1 67 121 55.1 67 117 55 67.1 
118 55 67.1 115.1 56 67 121.9 56 67 
115 56.1 67 120 56.9 67 121 56.9 67 
114 56 67.1 115 56 67.1 116 56 67.9 
117 56 67.9 118 56 67.9 119 56 67.9 
120 56 67.9 121 56 67.9 114.1 57 67 
119.9 57 67 115 57.9 67 118 57.9 67 
120 57.1 67 121 57.1 67 115 57 67.9 
120 57 67.1 115.1 58 67 117.9 58 67 
118.1 58 67 121.9 58 67 118 58.1 67 
114 58 67.1 115 58 67.1 118 58 67.1 
121 58 67.9 115.1 59 67 121.9 59 67 
117 59.9 67 121 59.9 67 115 59 67.1 
121 59 67.9 115.1 60 67 116.9 60 67 
117.1 60 67 120.9 60 67 117 60.1 67 
120 60.9 67 117 60 67.1 118 60 67.9 
120 60 67.9 115.1 61 67 119.9 61 67 
116 61.9 67 117 61.9 67 118 61.9 67 
119 61.9 67 117 62 67.1 118 62 67.1 
84 27.1 68 85 27.1 68 83.1 28 68 
85.9 28 68 83 28.1 68 86 28.1 68 
83 28 68.1 85 28 68.9 86 28 68.1 
82.1 29 68 86.9 29 68 84 29.9 68 
85 29.9 68 86 29.9 68 83 29 68.9 
87 29 68.1 82.1 30 68 83.9 30 68 
83 30.9 68 83 30 68.9 84 30 68.1 
85 30 68.1 115 53.1 68 116 53.1 68 
117 53.1 68 118 53.1 68 114.1 54 68 
118.9 54 68 115 54.9 68 116 54.9 68 
113 54 68.1 115 54 68.9 116 54 68.9 
117 54 68.9 118 54 68.9 116.1 55 68 
118.9 55 68 114 55.1 68 115 55.1 68 
117 55.9 68 118 55.9 68 114 55 68.1 
115 55 68.1 116 55 68.1 113.1 56 68 
115.9 56 68 114 56.9 68 115 56.9 68 
116 56.1 68 117 56.1 68 118 56.1 68 
119 56.1 68 120 56.1 68 112 56 68.1 
113 56 68.1 114 56 68.9 118 56 68.1 
119 56 68.1 115.1 57 68 120.9 57 68 
114 57.1 68 115 57.1 68 113 57 68.1 
114 57 68.1 115 57 68.1 117 57 68.9 
118 57 68.9 119 57 68.9 120 57 68.9 
113.1 58 68 120.9 58 68 114 58.9 68 
119 58 68.9 120 58 68.9 114.1 59 68 
120.9 59 68 115 59.9 68 118 59.9 68 
120 59.9 68 115.1 60 68 117.9 60 68 
118.1 60 68 119.9 60 68 118 60.1 68 
115 60 68.1 118 60 68.1 120 60 68.1 
115.1 61 68 119.9 61 68 116 61.9 68 
119 61.9 68 115 61 68.1 116.1 62 68 
118.9 62 68 117 62.9 68 118 62.9 68 
116 62 68.1 71 24 69.1 76 24 69.1 
71 25 69.1 72 25 69.1 73 25 69.1 
74 25 69.1 75 25 69.1 76 25 69.1 
87 25 69.1 88 25 69.1 89 25 69.1 
71 26 69.1 72 26 69.1 73 26 69.1 
74 26 69.1 75 26 69.1 76 26 69.1 
77 26 69.1 83 27.1 69 84 27.1 69 
86 27.1 69 70 27 69.1 82.1 28 69 
84.9 28 69 85.1 28 69 86.9 28 69 
83 28.9 69 85 28.1 69 87 28.1 69 
84 28 69.9 86 28 69.9 83.1 29 69 
87.9 29 69 86 29.9 69 87 29.9 69 
84 29 69.9 88 29 69.1 83.1 30 69 
85.9 30 69 84 30.9 69 85 30.9 69 
83 30 69.1 84 30 69.9 85 30 69.9 
88 30 69.1 113 53.1 69 112 53 69.1 
112.1 54 69 113.9 54 69 113 54.9 69 
114 54.1 69 115 54.1 69 116 54.1 69 
117 54.1 69 118 54.1 69 111 54 69.1 
112 54 69.1 114 54 69.1 115 54 69.1 
113.1 55 69 118.9 55 69 112 55.1 69 
113 55.1 69 114 55.9 69 116 55.9 69 
117 55.9 69 119 55.1 69 112 55 69.1 
113 55 69.1 114 55 69.9 116 55 69.9 
117 55 69.9 118 55 69.9 111.1 56 69 
113.9 56 69 114.1 56 69 115.9 56 69 
117.1 56 69 119.9 56 69 112 56.9 69 
114 56.1 69 116 56.1 69 118 56.9 69 
119 56.9 69 114 56 69.1 115 56 69.9 
116 56 69.1 118 56 69.9 112.1 57 69 
116.9 57 69 113 57.9 69 117 57.1 69 
118 57.1 69 112 57 69.1 113.1 58 69 
118.9 58 69 114 58.9 69 119 58.1 69 
120 58.1 69 114 58 69.9 114.1 59 69 
120.9 59 69 118 59 69.9 119 59 69.9 
120 59 69.9 114.1 60 69 120.9 60 69 
120 60.9 69 114 60 69.1 115 60 69.9 
120 60 69.9 114.1 61 69 119.9 61 69 
115 61.9 69 119 61.9 69 114 61 69.1 
115.1 62 69 118.9 62 69 116 62.9 69 
117 62.9 69 118 62.9 69 115 62 69.1 
118 62 69.9 115 63 69.1 117 63 69.1 
116 64 69.1 71 23.1 70 76 23.1 70 
70.1 24 70 71.9 24 70 75.1 24 70 
76.9 24 70 72 24.1 70 73 24.1 70 
74 24.1 70 75 24.1 70 87 24.1 70 
88 24.1 70 89 24.1 70 71 24 70.9 
76 24 70.9 70.1 25 70 76.9 25 70 
86.1 25 70 89.9 25 70 77 25.1 70 
87 25.9 70 88 25.9 70 89 25.9 70 
69 25 70.1 74 25 70.9 86 25 70.1 
88 25 70.9 89 25 70.9 70.1 26 70 
77.9 26 70 70 26.1 70 71 26.9 70 
72 26.9 70 73 26.9 70 74 26.9 70 
75 26.9 70 76 26.9 70 77 26.9 70 
69 26 70.1 70 26 70.1 72 26 70.9 
76 26 70.9 69.1 27 70 70.9 27 70 
70 27.9 70 83 27.1 70 67 27 70.1 
68 27 70.1 69 27 70.1 72 27 70.1 
74 27 70.1 81 27 70.1 82 27 70.1 
84 27 70.1 82.1 28 70 83.9 28 70 
83 28.9 70 85 28.1 70 86 28.1 70 
87 28.1 70 88 28.1 70 76 28 70.1 
83 28 70.9 84 28 70.1 84.1 29 70 
88.9 29 70 83 29.1 70 85 29.9 70 
86 29.9 70 87 29.9 70 82.1 30 70 
83.9 30 70 87.1 30 70 88.9 30 70 
83 30.9 70 88 30.9 70 88 30 70.9 
81 31 70.1 82 31 70.1 83 31 70.1 
83 32 70.1 84 32 70.1 88 32 70.1 
84 33 70.1 85 33 70.1 112 52.1 70 
[...]
POINT_DATA 8398
SCALARS scalars char
LOOKUP_TABLE default
0 0 0 0 0 0 0 0 0 
0 0 0 0 0 0 0 0 0 
0 0 0 0 0 0 0 0 0 
0 0 0 0 0 0 0 0 0 
0 0 0 0 0 0 0 0 0 
0 0 0 0 0 0 0 0 0 
0 0 0 0 0 0 0 0 0 
0 0 0 0 0 0 0 0 0 
0 0 0 0 0 0 0 0 0 
0 0 0 0 0 0 0 0 0 
0 0 0 0 0 0 0 0 0 
0 0 0 0 0 0 0 0 0 
0 0 0 0 0 0 0 0 0 
0 0 0 0 0 0 0 0 0 
0 0 0 0 0 0 0 0 0 
0 0 0 0 0 0 0 0 0 
0 0 0 0 0 0 0 0 0 
0 0 0 0 0 0 0 0 0 
0 0 0 0 0 0 0 0 0 
0 0 0 0 0 0 0 0 0 
0 0 0 0 0 0 0 0 0 
0 0 0 0 0 0 0 0 0 
0 0 0 0 0 0 0 0 0 
0 0 0 0 0 0 0 0 0 
0 0 0 0 0 0 0 0 0 
0 0 0 0 0 0 0 0 0 
0 0 0 0 0 0 0 0 0 
0 0 0 0 0 0 0 0 0 
0 0 0 0 0 0 0 0 0 
0 0 0 0 0 0 0 0 0 
0 0 0 0 0 0 0 0 0 
0 0 0 0 0 0 0 0 0 
0 0 0 0 0 0 0 0 0 
0 0 0 0 0 0 0 0 0 
0 0 0 0 0 0 0 0 0 
0 0 0 0 0 0 0 0 0 
0 0 0 0 0 0 0 0 0 
0 0 0 0 0 0 0 0 0 
0 0 0 0 0 0 0 0 0 
0 0 0 0 0 0 0 0 0 
0 0 0 0 0 0 0 0 0 
0 0 0 0 0 0 0 0 0 
0 0 0 0 0 0 0 0 0 
0 0 0 0 0 0 0 0 0 
0 0 0 0 0 0 0 0 0 
0 0 0 0 0 0 0 0 0 
0 0 0 0 0 0 0 0 0 
0 0 0 0 0 0 0 0 0 
0 0 0 0 0 0 0 0 0 
0 0 0 0 0 0 0 0 0 
0 0 0 0 0 0 0 0 0 
0 0 0 0 0 0 0 0 0 
0 0 0 0 0 0 0 0 0 
0 0 0 0 0 0 0 0 0 
0 0 0 0 0 0 0 0 0 
0 0 0 0 0 0 0 0 0 
0 0 0 0 0 0 0 0 0 
0 0 0 0 0 0 0 0 0 
0 0 0 0 0 0 0 0 0 
0 0 0 0 0 0 0 0 0 
0 0 0 0 0 0 0 0 0 
0 0 0 0 0 0 0 0 0 
0 0 0 0 0 0 0 0 0 
0 0 0 0 0 0 0 0 0 
0 0 0 0 0 0 0 0 0 
0 0 0 0 0 0 0 0 0 
0 0 0 0 0 0 0 0 0 
0 0 0 0 0 0 0 0 0 
0 0 0 0 0 0 0 0 0 
0 0 0 0 0 0 0 0 0 
0 0 0 0 0 0 0 0 0 
0 0 0 0 0 0 0 0 0 
0 0 0 0 0 0 0 0 0 
0 0 0 0 0 0 0 0 0 
0 0 0 0 0 0 0 0 0 
0 0 0 0 0 0 0 0 0 
0 0 0 0 0 0 0 0 0 
0 0 0 0 0 0 0 0 0 
0 0 0 0 0 0 0 0 0 
0 0 0 0 0 0 0 0 0 
0 0 0 0 0 0 0 0 0 
0 0 0 0 0 0 0 0 0 
0 0 0 0 0 0 0 0 0 
0 0 0 0 0 0 0 0 0 
0 0 0 0 0 0 0 0 0 
0 0 0 0 0 0 0 0 0 
0 0 0 0 0 0 0 0 0 
0 0 0 0 0 0 0 0 0 
0 0 0 0 0 0 0 0 0 
0 0 0 0 0 0 0 0 0 
0 0 0 0 0 0 0 0 0 
0 0 0 0 0 0 0 0 0 
0 0 0 0 0 0 0 0 0 
0 0 0 0 0 0 0 0 0 
0 0 0 0 0 0 0 0 0 
0 0 0 0 0 0 0 0 0 
0 0 0 0 0 0 0 0 0 
0 0 0 0 0 0 0 0 0 
0 0 0 0 0 0 0 0 0 
0 0 0 0 0 0 0 0 0 
0 0 0 0 0 0 0 0 0 
0 0 0 0 0 0 0 0 0 
0 0 0 0 0 0 0 0 0 
0 0 0 0 0 0 0 0 0 
0 0 0 0 0 0 0 0 0 
0 0 0 0 0 0 0 0 0 
0 0 0 0 0 0 0 0 0 
0 0 0 0 0 0 0 0 0 
0 0 0 0 0 0 0 0 0 
0 0 0 0 0 0 0 0 0 
0 0 0 0 0 0 0 0 0 
0 0 0 0 0 0 0 0 0 
0 0 0 0 0 0 0 0 0 
0 0 0 0 0 0 0 0 0 
0 0 0 0 0 0 0 0 0 
0 0 0 0 0 0 0 0 0 
0 0 0 0 0 0 0 0 0 
0 0 0 0 0 0 0 0 0 
0 0 0 0 0 0 0 0 0 
0 0 0 0 0 0 0 0 0 
0 0 0 0 0 0 0 0 0 
0 0 0 0 0 0 0 0 0 
0 0 0 0 0 0 0 0 0 
0 0 0 0 0 0 0 0 0 
0 0 0 0 0 0 0 0 0 
0 0 0 0 0 0 0 0 0 
0 0 0 0 0 0 0 0 0 
0 0 0 0 0 0 0 0 0 
0 0 0 0 0 0 0 0 0 
0 0 0 0 0 0 0 0 0 
0 0 0 0 0 0 0 0 0 
0 0 0 0 0 0 0 0 0 
0 0 0 0 0 0 0 0 0 
0 0 0 0 0 0 0 0 0 
0 0 0 0 0 0 0 0 0 
0 0 0 0 0 0 0 0 0 
0 0 0 0 0 0 0 0 0 
0 0 0 0 0 0 0 0 0 
0 0 0 0 0 0 0 0 0 
0 0 0 0 0 0 0 0 0 
0 0 0 0 0 0 0 0 0 
0 0 0 0 0 0 0 0 0 
0 0 0 0 0 0 0 0 0 
0 0 0 0 0 0 0 0 0 
0 0 0 0 0 0 0 0 0 
0 0 0 0 0 0 0 0 0 
0 0 0 0 0 0 0 0 0 
0 0 0 0 0 0 0 0 0 
0 0 0 0 0 0 0 0 0 
0 0 0 0 0 0 0 0 0 
0 0 0 0 0 0 0 0 0 
0 0 0 0 0 0 0 0 0 
0 0 0 0 0 0 0 0 0 
0 0 0 0 0 0 0 0 0 
0 0 0 0 0 0 0 0 0 
0 0 0 0 0 0 0 0 0 
0 0 0 0 0 0 0 0 0 
0 0 0 0 0 0 0 0 0 
0 0 0 0 0 0 0 0 0 
0 0 0 0 0 0 0 0 0 
0 0 0 0 0 0 0 0 0 
0 0 0 0 0 0 0 0 0 
0 0 0 0 0 0 0 0 0 
0 0 0 0 0 0 0 0 0 
0 0 0 0 0 0 0 0 0 
0 0 0 0 0 0 0 0 0 
0 0 0 0 0 0 0 0 0 
0 0 0 0 0 0 0 0 0 
0 0 0 0 0 0 0 0 0 
0 0 0 0 0 0 0 0 0 
0 0 0 0 0 0 0 0 0 
0 0 0 0 0 0 0 0 0 
0 0 0 0 0 0 0 0 0 
0 0 0 0 0 0 0 0 0 
0 0 0 0 0 0 0 0 0 
0 0 0 0 0 0 0 0 0 
0 0 0 0 0 0 0 0 0 
0 0 0 0 0 0 0 0 0 
0 0 0 0 0 0 0 0 0 
0 0 0 0 0 0 0 0 0 
0 0 0 0 0 0 0 0 0 
0 0 0 0 0 0 0 0 0 
0 0 0 0 0 0 0 0 0 
0 0 0 0 0 0 0 0 0 
0 0 0 0 0 0 0 0 0 
0 0 0 0 0 0 0 0 0 
0 0 0 0 0 0 0 0 0 
0 0 0 0 0 0 0 0 0 
0 0 0 0 0 0 0 0 0 
0 0 0 0 0 0 0 0 0 
0 0 0 0 0 0 0 0 0 
0 0 0 0 0 0 0 0 0 
0 0 0 0 0 0 0 0 0 
0 0 0 0 0 0 0 0 0 
0 0 0 0 0 0 0 0 0 
0 0 0 0 0 0 0 0 0 
0 0 0 0 0 0 0 0 0 
0 0 0 0 0 0 0 0 0 
0 0 0 0 0 0 0 0 0 
0 0 0 0 0 0 0 0 0 
0 0 0 0 0 0 0 0 0 
0 0 0 0 0 0 0 0 0 
0 0 0 0 0 0 0 0 0 
0 0 0 0 0 0 0 0 0 
0 0 0 0 0 0 0 0 0 
0 0 0 0 0 0 0 0 0 
0 0 0 0 0 0 0 0 0 
0 0 0 0 0 0 0 0 0 
0 0 0 0 0 0 0 0 0 
0 0 0 0 0 0 0 0 0 
0 0 0 0 0 0 0 0 0 
0 0 0 0 0 0 0 0 0 
0 0 0 0 0 0 0 0 0 
0 0 0 0 0 0 0 0 0 
0 0 0 0 0 0 0 0 0 
0 0 0 0 0 0 0 0 0 
0 0 0 0 0 0 0 0 0 
0 0 0 0 0 0 0 0 0 
0 0 0 0 0 0 0 0 0 
0 0 0 0 0 0 0 0 0 
0 0 0 0 0 0 0 0 0 
0 0 0 0 0 0 0 0 0 
0 0 0 0 0 0 0 0 0 
0 0 0 0 0 0 0 0 0 
0 0 0 0 0 0 0 0 0 
0 0 0 0 0 0 0 0 0 
0 0 0 0 0 0 0 0 0 
0 0 0 0 0 0 0 0 0 
0 0 0 0 0 0 0 0 0 
0 0 0 0 0 0 0 0 0 
0 0 0 0 0 0 0 0 0 
0 0 0 0 0 0 0 0 0 
0 0 0 0 0 0 0 0 0 
0 0 0 0 0 0 0 0 0 
0 0 0 0 0 0 0 0 0 
0 0 0 0 0 0 0 0 0 
0 0 0 0 0 0 0 0 0 
0 0 0 0 0 0 0 0 0 
0 0 0 0 0 0 0 0 0 
0 0 0 0 0 0 0 0 0 
0 0 0 0 0 0 0 0 0 
0 0 0 0 0 0 0 0 0 
0 0 0 0 0 0 0 0 0 
0 0 0 0 0 0 0 0 0 
0 0 0 0 0 0 0 0 0 
0 0 0 0 0 0 0 0 0 
0 0 0 0 0 0 0 0 0 
0 0 0 0 0 0 0 0 0 
0 0 0 0 0 0 0 0 0 
0 0 0 0 0 0 0 0 0 
0 0 0 0 0 0 0 0 0 
0 0 0 0 0 0 0 0 0 
0 0 0 0 0 0 0 0 0 
0 0 0 0 0 0 0 0 0 
0 0 0 0 0 0 0 0 0 
0 0 0 0 0 0 0 0 0 
0 0 0 0 0 0 0 0 0 
0 0 0 0 0 0 0 0 0 
0 0 0 0 0 0 0 0 0 
0 0 0 0 0 0 0 0 0 
0 0 0 0 0 0 0 0 0 
0 0 0 0 0 0 0 0 0 
0 0 0 0 0 0 0 0 0 
0 0 0 0 0 0 0 0 0 
0 0 0 0 0 0 0 0 0 
0 0 0 0 0 0 0 0 0 
0 0 0 0 0 0 0 0 0 
0 0 0 0 0 0 0 0 0 
0 0 0 0 0 0 0 0 0 
0 0 0 0 0 0 0 0 0 
0 0 0 0 0 0 0 0 0 
0 0 0 0 0 0 0 0 0 
0 0 0 0 0 0 0 0 0 
0 0 0 0 0 0 0 0 0 
0 0 0 0 0 0 0 0 0 
0 0 0 0 0 0 0 0 0 
0 0 0 0 0 0 0 0 0 
0 0 0 0 0 0 0 0 0 
0 0 0 0 0 0 0 0 0 
0 0 0 0 0 0 0 0 0 
0 0 0 0 0 0 0 0 0 
0 0 0 0 0 0 0 0 0 
0 0 0 0 0 0 0 0 0 
0 0 0 0 0 0 0 0 0 
0 0 0 0 0 0 0 0 0 
0 0 0 0 0 0 0 0 0 
0 0 0 0 0 0 0 0 0 
0 0 0 0 0 0 0 0 0 
0 0 0 0 0 0 0 0 0 
0 0 0 0 0 0 0 0 0 
0 0 0 0 0 0 0 0 0 
0 0 0 0 0 0 0 0 0 
0 0 0 0 0 0 0 0 0 
0 0 0 0 0 0 0 0 0 
0 0 0 0 0 0 0 0 0 
0 0 0 0 0 0 0 0 0 
0 0 0 0 0 0 0 0 0 
0 0 0 0 0 0 0 0 0 
0 0 0 0 0 0 0 0 0 
0 0 0 0 0 0 0 0 0 
0 0 0 0 0 0 0 0 0 
0 0 0 0 0 0 0 0 0 
0 0 0 0 0 0 0 0 0 
0 0 0 0 0 0 0 0 0 
0 0 0 0 0 0 0 0 0 
0 0 0 0 0 0 0 0 0 
0 0 0 0 0 0 0 0 0 
0 0 0 0 0 0 0 0 0 
0 0 0 0 0 0 0 0 0 
0 0 0 0 0 0 0 0 0 
0 0 0 0 0 0 0 0 0 
0 0 0 0 0 0 0 0 0 
0 0 0 0 0 0 0 0 0 
0 0 0 0 0 0 0 0 0 
0 0 0 0 0 0 0 0 0 
0 0 0 0 0 0 0 0 0 
0 0 0 0 0 0 0 0 0 
0 0 0 0 0 0 0 0 0 
0 0 0 0 0 0 0 0 0 
0 0 0 0 0 0 0 0 0 
0 0 0 0 0 0 0 0 0 
0 0 0 0 0 0 0 0 0 
0 0 0 0 0 0 0 0 0 
0 0 0 0 0 0 0 0 0 
0 0 0 0 0 0 0 0 0 
0 0 0 0 0 0 0 0 0 
0 0 0 0 0 0 0 0 0 
0 0 0 0 0 0 0 0 0 
0 0 0 0 0 0 0 0 0 
0 0 0 0 0 0 0 0 0 
0 0 0 0 0 0 0 0 0 
0 0 0 0 0 0 0 0 0 
0 0 0 0 0 0 0 0 0 
0 0 0 0 0 0 0 0 0 
0 0 0 0 0 0 0 0 0 
0 0 0 0 0 0 0 0 0 
0 0 0 0 0 0 0 0 0 
0 0 0 0 0 0 0 0 0 
0 0 0 0 0 0 0 0 0 
0 0 0 0 0 0 0 0 0 
0 0 0 0 0 0 0 0 0 
0 0 0 0 0 0 0 0 0 
0 0 0 0 0 0 0 0 0 
0 0 0 0 0 0 0 0 0 
0 0 0 0 0 0 0 0 0 
0 0 0 0 0 0 0 0 0 
0 0 0 0 0 0 0 0 0 
0 0 0 0 0 0 0 0 0 
0 0 0 0 0 0 0 0 0 
0 0 0 0 0 0 0 0 0 
0 0 0 0 0 0 0 0 0 
0 0 0 0 0 0 0 0 0 
0 0 0 0 0 0 0 0 0 
0 0 0 0 0 0 0 0 0 
0 0 0 0 0 0 0 0 0 
0 0 0 0 0 0 0 0 0 
0 0 0 0 0 0 0 0 0 
0 0 0 0 0 0 0 0 0 
0 0 0 0 0 0 0 0 0 
0 0 0 0 0 0 0 0 0 
0 0 0 0 0 0 0 0 0 
0 0 0 0 0 0 0 0 0 
0 0 0 0 0 0 0 0 0 
0 0 0 0 0 0 0 0 0 
0 0 0 0 0 0 0 0 0 
0 0 0 0 0 0 0 0 0 
0 0 0 0 0 0 0 0 0 
0 0 0 0 0 0 0 0 0 
0 0 0 0 0 0 0 0 0 
0 0 0 0 0 0 0 0 0 
0 0 0 0 0 0 0 0 0 
0 0 0 0 0 0 0 0 0 
0 0 0 0 0 0 0 0 0 
0 0 0 0 0 0 0 0 0 
0 0 0 0 0 0 0 0 0 
0 0 0 0 0 0 0 0 0 
0 0 0 0 0 0 0 0 0 
0 0 0 0 0 0 0 0 0 
0 0 0 0 0 0 0 0 0 
0 0 0 0 0 0 0 0 0 
0 0 0 0 0 0 0 0 0 
0 0 0 0 0 0 0 0 0 
0 0 0 0 0 0 0 0 0 
0 0 0 0 0 0 0 0 0 
0 0 0 0 0 0 0 0 0 
0 0 0 0 0 0 0 0 0 
0 0 0 0 0 0 0 0 0 
0 0 0 0 0 0 0 0 0 
0 0 0 0 0 0 0 0 0 
0 0 0 0 0 0 0 0 0 
0 0 0 0 0 0 0 0 0 
0 0 0 0 0 0 0 0 0 
0 0 0 0 0 0 0 0 0 
0 0 0 0 0 0 0 0 0 
0 0 0 0 0 0 0 0 0 
0 0 0 0 0 0 0 0 0 
0 0 0 0 0 0 0 0 0 
0 0 0 0 0 0 0 0 0 
0 0 0 0 0 0 0 0 0 
0 0 0 0 0 0 0 0 0 
0 0 0 0 0 0 0 0 0 
0 0 0 0 0 0 0 0 0 
0 0 0 0 0 0 0 0 0 
0 0 0 0 0 0 0 0 0 
0 0 0 0 0 0 0 0 0 
0 0 0 0 0 0 0 0 0 
0 0 0 0 0 0 0 0 0 
0 0 0 0 0 0 0 0 0 
0 0 0 0 0 0 0 0 0 
0 0 0 0 0 0 0 0 0 
0 0 0 0 0 0 0 0 0 
0 0 0 0 0 0 0 0 0 
0 0 0 0 0 0 0 0 0 
0 0 0 0 0 0 0 0 0 
0 0 0 0 0 0 0 0 0 
0 0 0 0 0 0 0 0 0 
0 0 0 0 0 0 0 0 0 
0 0 0 0 0 0 0 0 0 
0 0 0 0 0 0 0 0 0 
0 0 0 0 0 0 0 0 0 
0 0 0 0 0 0 0 0 0 
0 0 0 0 0 0 0 0 0 
0 0 0 0 0 0 0 0 0 
0 0 0 0 0 0 0 0 0 
0 0 0 0 0 0 0 0 0 
0 0 0 0 0 0 0 0 0 
0 0 0 0 0 0 0 0 0 
0 0 0 0 0 0 0 0 0 
0 0 0 0 0 0 0 0 0 
0 0 0 0 0 0 0 0 0 
0 0 0 0 0 0 0 0 0 
0 0 0 0 0 0 0 0 0 
0 0 0 0 0 0 0 0 0 
0 0 0 0 0 0 0 0 0 
0 0 0 0 0 0 0 0 0 
0 0 0 0 0 0 0 0 0 
0 0 0 0 0 0 0 0 0 
0 0 0 0 0 0 0 0 0 
0 0 0 0 0 0 0 0 0 
0 0 0 0 0 0 0 0 0 
0 0 0 0 0 0 0 0 0 
0 0 0 0 0 0 0 0 0 
0 0 0 0 0 0 0 0 0 
0 0 0 0 0 0 0 0 0 
0 0 0 0 0 0 0 0 0 
0 0 0 0 0 0 0 0 0 
0 0 0 0 0 0 0 0 0 
0 0 0 0 0 0 0 0 0 
0 0 0 0 0 0 0 0 0 
0 0 0 0 0 0 0 0 0 
0 0 0 0 0 0 0 0 0 
0 0 0 0 0 0 0 0 0 
0 0 0 0 0 0 0 0 0 
0 0 0 0 0 0 0 0 0 
0 0 0 0 0 0 0 0 0 
0 0 0 0 0 0 0 0 0 
0 0 0 0 0 0 0 0 0 
0 0 0 0 0 0 0 0 0 
0 0 0 0 0 0 0 0 0 
0 0 0 0 0 0 0 0 0 
0 0 0 0 0 0 0 0 0 
0 0 0 0 0 0 0 0 0 
0 0 0 0 0 0 0 0 0 
0 0 0 0 0 0 0 0 0 
0 0 0 0 0 0 0 0 0 
0 0 0 0 0 0 0 0 0 
0 0 0 0 0 0 0 0 0 
0 0 0 0 0 0 0 0 0 
0 0 0 0 0 0 0 0 0 
0 0 0 0 0 0 0 0 0 
0 0 0 0 0 0 0 0 0 
0 0 0 0 0 0 0 0 0 
0 0 0 0 0 0 0 0 0 
0 0 0 0 0 0 0 0 0 
0 0 0 0 0 0 0 0 0 
0 0 0 0 0 0 0 0 0 
0 0 0 0 0 0 0 0 0 
0 0 0 0 0 0 0 0 0 
0 0 0 0 0 0 0 0 0 
0 0 0 0 0 0 0 0 0 
0 0 0 0 0 0 0 0 0 
0 0 0 0 0 0 0 0 0 
0 0 0 0 0 0 0 0 0 
0 0 0 0 0 0 0 0 0 
0 0 0 0 0 0 0 0 0 
0 0 0 0 0 0 0 0 0 
0 0 0 0 0 0 0 0 0 
0 0 0 0 0 0 0 0 0 
0 0 0 0 0 0 0 0 0 
0 0 0 0 0 0 0 0 0 
0 0 0 0 0 0 0 0 0 
0 0 0 0 0 0 0 0 0 
0 0 0 0 0 0 0 0 0 
0 0 0 0 0 0 0 0 0 
0 0 0 0 0 0 0 0 0 
0 0 0 0 0 0 0 0 0 
0 0 0 0 0 0 0 0 0 
0 0 0 0 0 0 0 0 0 
0 0 0 0 0 0 0 0 0 
0 0 0 0 0 0 0 0 0 
0 0 0 0 0 0 0 0 0 
0 0 0 0 0 0 0 0 0 
0 0 0 0 0 0 0 0 0 
0 0 0 0 0 0 0 0 0 
0 0 0 0 0 0 0 0 0 
0 0 0 0 0 0 0 0 0 
0 0 0 0 0 0 0 0 0 
0 0 0 0 0 0 0 0 0 
0 0 0 0 0 0 0 0 0 
0 0 0 0 0 0 0 0 0 
0 0 0 0 0 0 0 0 0 
0 0 0 0 0 0 0 0 0 
0 0 0 0 0 0 0 0 0 
0 0 0 0 0 0 0 0 0 
0 0 0 0 0 0 0 0 0 
0 0 0 0 0 0 0 0 0 
0 0 0 0 0 0 0 0 0 
0 0 0 0 0 0 0 0 0 
0 0 0 0 0 0 0 0 0 
0 0 0 0 0 0 0 0 0 
0 0 0 0 0 0 0 0 0 
0 0 0 0 0 0 0 0 0 
0 0 0 0 0 0 0 0 0 
0 0 0 0 0 0 0 0 0 
0 0 0 0 0 0 0 0 0 
0 0 0 0 0 0 0 0 0 
0 0 0 0 0 0 0 0 0 
0 0 0 0 0 0 0 0 0 
0 0 0 0 0 0 0 0 0 
0 0 0 0 0 0 0 0 0 
0 0 0 0 0 0 0 0 0 
0 0 0 0 0 0 0 0 0 
0 0 0 0 0 0 0 0 0 
0 0 0 0 0 0 0 0 0 
0 0 0 0 0 0 0 0 0 
0 0 0 0 0 0 0 0 0 
0 0 0 0 0 0 0 0 0 
0 0 0 0 0 0 0 0 0 
0 0 0 0 0 0 0 0 0 
0 0 0 0 0 0 0 0 0 
0 0 0 0 0 0 0 0 0 
0 0 0 0 0 0 0 0 0 
0 0 0 0 0 0 0 0 0 
0 0 0 0 0 0 0 0 0 
0 0 0 0 0 0 0 0 0 
0 0 0 0 0 0 0 0 0 
0 0 0 0 0 0 0 0 0 
0 0 0 0 0 0 0 0 0 
0 0 0 0 0 0 0 0 0 
0 0 0 0 0 0 0 0 0 
0 0 0 0 0 0 0 0 0 
0 0 0 0 0 0 0 0 0 
0 0 0 0 0 0 0 0 0 
0 0 0 0 0 0 0 0 0 
0 0 0 0 0 0 0 0 0 
0 0 0 0 0 0 0 0 0 
0 0 0 0 0 0 0 0 0 
0 0 0 0 0 0 0 0 0 
0 0 0 0 0 0 0 0 0 
0 0 0 0 0 0 0 0 0 
0 0 0 0 0 0 0 0 0 
0 0 0 0 0 0 0 0 0 
0 0 0 0 0 0 0 0 0 
0 0 0 0 0 0 0 0 0 
0 0 0 0 0 0 0 0 0 
0 0 0 0 0 0 0 0 0 
0 0 0 0 0 0 0 0 0 
0 0 0 0 0 0 0 0 0 
0 0 0 0 0 0 0 0 0 
0 0 0 0 0 0 0 0 0 
0 0 0 0 0 0 0 0 0 
0 0 0 0 0 0 0 0 0 
0 0 0 0 0 0 0 0 0 
0 0 0 0 0 0 0 0 0 
0 0 0 0 0 0 0 0 0 
0 0 0 0 0 0 0 0 0 
0 0 0 0 0 0 0 0 0 
0 0 0 0 0 0 0 0 0 
0 0 0 0 0 0 0 0 0 
0 0 0 0 0 0 0 0 0 
0 0 0 0 0 0 0 0 0 
0 0 0 0 0 0 0 0 0 
0 0 0 0 0 0 0 0 0 
0 0 0 0 0 0 0 0 0 
0 0 0 0 0 0 0 0 0 
0 0 0 0 0 0 0 0 0 
0 0 0 0 0 0 0 0 0 
0 0 0 0 0 0 0 0 0 
0 0 0 0 0 0 0 0 0 
0 0 0 0 0 0 0 0 0 
0 0 0 0 0 0 0 0 0 
0 0 0 0 0 0 0 0 0 
0 0 0 0 0 0 0 0 0 
0 0 0 0 0 0 0 0 0 
0 0 0 0 0 0 0 0 0 
0 0 0 0 0 0 0 0 0 
0 0 0 0 0 0 0 0 0 
0 0 0 0 0 0 0 0 0 
0 0 0 0 0 0 0 0 0 
0 0 0 0 0 0 0 0 0 
0 0 0 0 0 0 0 0 0 
0 0 0 0 0 0 0 0 0 
0 0 0 0 0 0 0 0 0 
0 0 0 0 0 0 0 0 0 
0 0 0 0 0 0 0 0 0 
0 0 0 0 0 0 0 0 0 
0 0 0 0 0 0 0 0 0 
0 0 0 0 0 0 0 0 0 
0 0 0 0 0 0 0 0 0 
0 0 0 0 0 0 0 0 0 
0 0 0 0 0 0 0 0 0 
0 0 0 0 0 0 0 0 0 
0 0 0 0 0 0 0 0 0 
0 0 0 0 0 0 0 0 0 
0 0 0 0 0 0 0 0 0 
0 0 0 0 0 0 0 0 0 
0 0 0 0 0 0 0 0 0 
0 0 0 0 0 0 0 0 0 
0 0 0 0 0 0 0 0 0 
0 0 0 0 0 0 0 0 0 
0 0 0 0 0 0 0 0 0 
0 0 0 0 0 0 0 0 0 
0 0 0 0 0 0 0 0 0 
0 0 0 0 0 0 0 0 0 
0 0 0 0 0 0 0 0 0 
0 0 0 0 0 0 0 0 0 
0 0 0 0 0 0 0 0 0 
0 0 0 0 0 0 0 0 0 
0 0 0 0 0 0 0 0 0 
0 0 0 0 0 0 0 0 0 
0 0 0 0 0 0 0 0 0 
0 0 0 0 0 0 0 0 0 
0 0 0 0 0 0 0 0 0 
0 0 0 0 0 0 0 0 0 
0 0 0 0 0 0 0 0 0 
0 0 0 0 0 0 0 0 0 
0 0 0 0 0 0 0 0 0 
0 0 0 0 0 0 0 0 0 
0 0 0 0 0 0 0 0 0 
0 0 0 0 0 0 0 0 0 
0 0 0 0 0 0 0 0 0 
0 0 0 0 0 0 0 0 0 
0 0 0 0 0 0 0 0 0 
0 0 0 0 0 0 0 0 0 
0 0 0 0 0 0 0 0 0 
0 0 0 0 0 0 0 0 0 
0 0 0 0 0 0 0 0 0 
0 0 0 0 0 0 0 0 0 
0 0 0 0 0 0 0 0 0 
0 0 0 0 0 0 0 0 0 
0 0 0 0 0 0 0 0 0 
0 0 0 0 0 0 0 0 0 
0 0 0 0 0 0 0 0 0 
0 0 0 0 0 0 0 0 0 
0 0 0 0 0 0 0 0 0 
0 0 0 0 0 0 0 0 0 
0 0 0 0 0 0 0 0 0 
0 0 0 0 0 0 0 0 0 
0 0 0 0 0 0 0 0 0 
0 0 0 0 0 0 0 0 0 
0 0 0 0 0 0 0 0 0 
0 0 0 0 0 0 0 0 0 
0 0 0 0 0 0 0 0 0 
0 0 0 0 0 0 0 0 0 
0 0 0 0 0 0 0 0 0 
0 0 0 0 0 0 0 0 0 
0 0 0 0 0 0 0 0 0 
0 0 0 0 0 0 0 0 0 
0 0 0 0 0 0 0 0 0 
0 0 0 0 0 0 0 0 0 
0 0 0 0 0 0 0 0 0 
0 0 0 0 0 0 0 0 0 
0 0 0 0 0 0 0 0 0 
0 0 0 0 0 0 0 0 0 
0 0 0 0 0 0 0 0 0 
0 0 0 0 0 0 0 0 0 
0 0 0 0 0 0 0 0 0 
0 0 0 0 0 0 0 0 0 
0 0 0 0 0 0 0 0 0 
0 0 0 0 0 0 0 0 0 
0 0 0 0 0 0 0 0 0 
0 0 0 0 0 0 0 0 0 
0 0 0 0 0 0 0 0 0 
0 0 0 0 0 0 0 0 0 
0 0 0 0 0 0 0 0 0 
0 0 0 0 0 0 0 0 0 
0 0 0 0 0 0 0 0 0 
0 0 0 0 0 0 0 0 0 
0 0 0 0 0 0 0 0 0 
0 0 0 0 0 0 0 0 0 
0 0 0 0 0 0 0 0 0 
0 0 0 0 0 0 0 0 0 
0 0 0 0 0 0 0 0 0 
0 0 0 0 0 0 0 0 0 
0 0 0 0 0 0 0 0 0 
0 0 0 0 0 0 0 0 0 
0 0 0 0 0 0 0 0 0 
0 0 0 0 0 0 0 0 0 
0 0 0 0 0 0 0 0 0 
0 0 0 0 0 0 0 0 0 
0 0 0 0 0 0 0 0 0 
0 0 0 0 0 0 0 0 0 
0 0 0 0 0 0 0 0 0 
0 0 0 0 0 0 0 0 0 
0 0 0 0 0 0 0 0 0 
0 0 0 0 0 0 0 0 0 
0 0 0 0 0 0 0 0 0 
0 0 0 0 0 0 0 0 0 
0 0 0 0 0 0 0 0 0 
0 0 0 0 0 0 0 0 0 
0 0 0 0 0 0 0 0 0 
0 0 0 0 0 0 0 0 0 
0 0 0 0 0 0 0 0 0 
0 0 0 0 0 0 0 0 0 
0 0 0 0 0 0 0 0 0 
0 0 0 0 0 0 0 0 0 
0 0 0 0 0 0 0 0 0 
0 0 0 0 0 0 0 0 0 
0 0 0 0 0 0 0 0 0 
0 0 0 0 0 0 0 0 0 
0 0 0 0 0 0 0 0 0 
0 0 0 0 0 0 0 0 0 
0 0 0 0 0 0 0 0 0 
0 0 0 0 0 0 0 0 0 
0 0 0 0 0 0 0 0 0 
0 0 0 0 0 0 0 0 0 
0 0 0 0 0 0 0 0 0 
0 0 0 0 0 0 0 0 0 
0 0 0 0 0 0 0 0 0 
0 0 0 0 0 0 0 0 0 
0 0 0 0 0 0 0 0 0 
0 0 0 0 0 0 0 0 0 
0 0 0 0 0 0 0 0 0 
0 0 0 0 0 0 0 0 0 
0 0 0 0 0 0 0 0 0 
0 0 0 0 0 0 0 0 0 
0 0 0 0 0 0 0 0 0 
0 0 0 0 0 0 0 0 0 
0 0 0 0 0 0 0 0 0 
0 0 0 0 0 0 0 0 0 
0 0 0 0 0 0 0 0 0 
0 0 0 0 0 0 0 0 0 
0 0 0 0 0 0 0 0 0 
0 0 0 0 0 0 0 0 0 
0 0 0 0 0 0 0 0 0 
0 0 0 0 0 0 0 0 0 
0 0 0 0 0 0 0 0 0 
0 0 0 0 0 0 0 0 0 
0 0 0 0 0 0 0 0 0 
0 0 0 0 0 0 0 0 0 
0 0 0 0 0 0 0 0 0 
0 0 0 0 0 0 0 0 0 
0 0 0 0 0 0 0 0 0 
0 0 0 0 0 0 0 0 0 
0 0 0 0 0 0 0 0 0 
0 0 0 0 0 0 0 0 0 
0 0 0 0 0 0 0 0 0 
0 0 0 0 0 0 0 0 0 
0 0 0 0 0 0 0 0 0 
0 0 0 0 0 0 0 0 0 
0 0 0 0 0 0 0 0 0 
0 0 0 0 0 0 0 0 0 
0 0 0 0 0 0 0 0 0 
0 0 0 0 0 0 0 0 0 
0 0 0 0 0 0 0 0 0 
0 0 0 0 0 0 0 0 0 
0 0 0 0 0 0 0 0 0 
0 0 0 0 0 0 0 0 0 
0 0 0 0 0 0 0 0 0 
0 0 0 0 0 0 0 0 0 
0 0 0 0 0 0 0 0 0 
0 0 0 0 0 0 0 0 0 
0 0 0 0 0 0 0 0 0 
0 0 0 0 0 0 0 0 0 
0 0 0 0 0 0 0 0 0 
0 0 0 0 0 0 0 0 0 
0 0 0 0 0 0 0 0 0 
0 0 0 0 0 0 0 0 0 
0 0 0 0 0 0 0 0 0 
0 0 0 0 0 0 0 0 0 
0 0 0 0 0 0 0 0 0 
0 0 0 0 0 0 0 0 0 
0 0 0 0 0 0 0 0 0 
0 0 0 0 0 0 0 0 0 
0 0 0 0 0 0 0 0 0 
0 0 0 0 0 0 0 0 0 
0 0 0 0 0 0 0 0 0 
0 0 0 0 0 0 0 0 0 
0 0 0 0 0 0 0 0 0 
0 0 0 0 0 0 0 0 0 
0 0 0 0 0 0 0 0 0 
0 0 0 0 0 0 0 0 0 
0 0 0 0 0 0 0 0 0 
0 0 0 0 0 0 0 0 0 
0 0 0 0 0 0 0 0 0 
0 0 0 0 0 0 0 0 0 
0 0 0 0 0 0 0 0 0 
0 0 0 0 0 0 0 0 0 
0 0 0 0 0 0 0 0 0 
0 0 0 0 0 0 0 0 0 
0 0 0 0 0 0 0 0 0 
0 0 0 0 0 0 0 0 0 
0 0 0 0 0 0 0 0 0 
0 0 0 0 0 0 0 0 0 
0 0 0 0 0 0 0 0 0 
0 0 0 0 0 0 0 0 0 
0 0 0 0 0 0 0 0 0 
0 0 0 0 0 0 0 0 0 
0 0 0 0 0 0 0 0 0 
0 0 0 0 0 0 0 0 0 
0 0 0 0 0 0 0 0 0 
0 0 0 0 0 0 0 0 0 
0 0 0 0 0 0 0 0 0 
0 0 0 0 0 0 0 0 0 
0 0 0 0 0 0 0 0 0 
0 0 0 0 0 0 0 0 0 
0 0 0 0 0 0 0 0 0 
0 0 0 0 0 0 0 0 0 
0 0 0 0 0 0 0 0 0 
0 0 0 0 0 0 0 0 0 
0 0 0 0 0 0 0 0 0 
0 0 0 0 0 0 0 0 0 
0 0 0 0 0 0 0 0 0 
0 0 0 0 0 0 0 0 0 
0 0 0 0 0 0 0 0 0 
0 0 0 0 0 0 0 0 0 
0 0 0 0 0 0 0 0 0 
0 0 0 0 0 0 0 0 0 
0 0 0 0 0 0 0 0 0 
0 0 0 0 0 0 0 0 0 
0 0 0 0 0 0 0 0 0 
0 0 0 0 0 0 0 0 0 
0 0 0 0 0 0 0 0 0 
0 0 0 0 0 0 0 0 0 
0 0 0 0 0 0 0 0 0 
0 0 0 0 0 0 0 0 0 
0 0 0 0 0 0 0 0 0 
0 0 0 0 0 0 0 0 0 
0 0 0 0 0 0 0 0 0 
0 0 0 0 0 0 0 0 0 
0 0 0 0 0 0 0 0 0 
0 0 0 0 0 0 0 0 0 
0 0 0 0 0 0 0 0 0 
0 0 0 0 0 0 0 0 0 
0 0 0 0 0 0 0 0 0 
0 0 0 0 0 0 0 0 0 
0 0 0 0 0 0 0 0 0 
0 0 0 0 0 0 0 0 0 
0 0 0 0 0 0 0 0 0 
0 0 0 0 0 0 0 0 0 
0 0 0 0 0 0 0 0 0 
0 0 0 0 0 0 0 0 0 
0 0 0 0 0 0 0 0 0 
0 0 0 0 0 0 0 0 0 
0 0 0 0 0 0 0 0 0 
0 0 0 0 0 0 0 0 0 
0 0 0 0 0 0 0 0 0 
0 0 0 0 0 0 0 0 0 
0 0 0 0 0 0 0 0 0 
0 0 0 0 0 0 0 0 0 
0 0 0 0 0 0 0 0 0 
0 0 0 0 0 0 0 0 0 
0 0 0 0 0 0 0 0 0 
0 0 0 0 0 0 0 0 0 
0 0 0 0 0 0 0 0 0 
0 0 0 0 0 0 0 0 0 
0 0 0 0 0 0 0 0 0 
0 0 0 0 0 0 0 0 0 
0 0 0 0 0 0 0 0 0 
0 0 0 0 0 0 0 0 0 
0 0 0 0 0 0 0 0 0 
0 0 0 0 0 0 0 0 0 
0 0 0 0 0 0 0 0 0 
0 0 0 0 0 0 0 0 0 
0 0 0 0 0 0 0 0 0 
0 0 0 0 0 0 0 0 0 
0 0 0 0 0 0 0 0 0 
0 0 0 0 0 0 0 0 0 
0 0 0 0 0 0 0 0 0 
0 0 0 0 0 0 0 0 0 
0 0 0 0 0 0 0 0 0 
0 0 0 0 0 0 0 0 0 
0 0 0 0 0 0 0 0 0 
0 0 0 0 0 0 0 0 0 
0 0 0 0 0 0 0 0 0 
0 0 0 0 0 0 0 0 0 
0 0 0 0 0 0 0 0 0 
0 0 0 0 0 0 0 0 0 
0 0 0 0 0 0 0 0 0 
0 0 0 0 0 0 0 0 0 
0 0 0 0 0 0 0 0 0 
0 0 0 0 0 0 0 0 0 
0 0 0 0 0 0 0 0 0 
0 0 0 0 0 0 0 0 0 
0 0 0 0 0 0 0 0 0 
0 0 0 0 0 0 0 0 0 
0 0 0 0 0 0 0 0 0 
0 0 0 0 0 0 0 0 0 
0 0 0 0 0 0 0 0 0 
0 0 0 0 0 0 0 0 0 
0 0 0 0 0 0 0 0 0 
0 0 0 0 0 0 0 0 0 
0 0 0 0 0 0 0 0 0 
0 0 0 0 0 0 0 0 0 
0 0 0 0 0 0 0 0 0 
0 0 0 0 0 0 0 0 0 
0 0 0 0 0 0 0 0 0 
0 0 0 0 0 0 0 0 0 
0 0 0 0 0 0 0 0 0 
0 0 0 0 0 0 0 0 0 
0 0 0 0 0 0 0 0 0 
0 0 0 0 0 0 0 0 0 
0 0 0 0 0 0 0 0 0 
0 0 0 0 0 0 0 0 0 
0 0 0 0 0 0 0 0 0 
0 0 0 0 0 0 0 0 0 
0 0 0 0 0 0 0 0 0 
0 0 0 0 0 0 0 0 0 
0 0 0 0 0 0 0 0 0 
0 0 0 0 0 0 0 0 0 
0 0 0 0 0 0 0 0 0 
0 0 0 0 0 0 0 0 0 
0 0 0 0 0 0 0 0 0 
0 0 0 0 0 0 0 0 0 
0 0 0 0 0 0 0 0 0 
0 0 0 0 0 0 0 0 0 
0 0 0 0 0 0 0 0 0 
0 0 0 0 0 0 0 0 0 
0 0 0 0 0 0 0 0 0 
0 0 0 0 0 0 0 0 0 
0 0 0 0 0 0 0 0 0 
0 0 0 0 0 0 0 0 0 
0 0 0 0 0 0 0 0 0 
0 
NORMALS Normals float
-0 -0.0995037 -0.995037 -0 0.0995037 -0.995037 -0 -0.0995037 -0.995037 
-0.0995037 -0 -0.995037 0.0990148 0.0990148 -0.990148 -0 -0.995037 -0.0995037 
-0.987878 -0.109764 -0.109764 0.667124 -0.0741249 -0.741249 -0 -0.995037 -0.0995037 
0.705346 -0.0705346 -0.705346 -0.667124 0.0741249 -0.741249 -0 -0.624695 -0.780869 
-0 -0.707107 -0.707107 0.987878 -0.109764 -0.109764 -0.536895 0.59655 -0.59655 
-0.0741249 -0.667124 -0.741249 -0.707107 -0 -0.707107 -0 -0.668965 -0.743294 
-0.59655 0.536895 -0.59655 0.990148 0.0990148 -0.0990148 -0.109764 0.987878 -0.109764 
0.0990148 0.990148 -0.0990148 -0.57735 0.57735 -0.57735 -0.0995037 -0.995037 -0 
0.0990148 -0.990148 -0.0990148 -0.707107 -0.707107 -0 0.705346 -0.705346 -0.0705346 
-0.741249 -0.667124 -0.0741249 0.707107 -0.707107 -0 -0.995037 -0 -0.0995037 
0.995037 -0.0995037 -0 -0.741249 0.667124 -0.0741249 -0 -0 1 
-0.705346 0.705346 -0.0705346 0.995037 0.0995037 -0 -0.0990148 0.990148 -0.0990148 
-0 1 -0 0.0995037 0.995037 -0 -0 -0.110432 -0.993884 
-0 0.0995037 -0.995037 -0.110432 -0.993884 -0 0.0995037 -0.995037 -0 
-0.743294 -0.668965 -0 0.707107 -0.707107 -0 -0.707107 -0.707107 -0 
-0.110432 -0 0.993884 0.707107 -0.707107 -0 -1 -0 -0 
-0 -0 1 -0.110432 -0 0.993884 0.995037 -0.0995037 -0 
-0.57735 0.57735 -0.57735 -0.110432 -0 0.993884 -0.617802 0.556022 -0.556022 
0.995037 0.0995037 -0 -0.0783261 0.704934 -0.704934 -0 1 -0 
0.0995037 0.995037 -0 -0.57735 0.57735 -0.57735 -0 0.668965 -0.743294 
-0 0.0995037 -0.995037 -0 -1 -0 -0.704934 -0.0783261 -0.704934 
0.704934 -0.0783261 -0.704934 -0.704934 -0.0783261 -0.704934 -0 -1 -0 
0.667124 -0.0741249 -0.741249 -0.667124 0.0741249 -0.741249 0.667124 0.0741249 -0.741249 
-0 0.707107 -0.707107 -0.705346 0.0705346 -0.705346 0.705346 0.0705346 -0.705346 
-0 0.743294 -0.668965 -0.0783261 -0.704934 -0.704934 0.0995037 -0.995037 -0 
-0 -0.743294 -0.668965 -0.617802 -0.556022 -0.556022 0.707107 -0.707107 -0 
-0.556022 -0.617802 -0.556022 -0.110432 -0 -0.993884 0.707107 -0.707107 -0 
-0.57735 -0.57735 -0.57735 -0.993884 -0.110432 -0 -0 -0.110432 -0.993884 
-0.110432 -0 -0.993884 0.995037 -0.0995037 -0 -0 -0.110432 -0.993884 